150
step:0 columns:species,position dt:0.002 cell:5.0,5.0,5.0 
A -0.687414 1.515705 0.113163
A -0.956476 1.123708 2.254465
A 1.408235 -0.233262 0.628775
A -1.240660 -1.370360 -1.658167
A -1.490983 1.883210 0.635187
A 2.054965 1.057611 -2.330152
A 1.874205 -0.943609 0.070796
A 1.061530 -1.551493 -1.810403
A -0.653115 -1.033587 2.486274
A -2.413968 1.783063 1.271409
A 2.021389 -2.098849 0.555496
A -1.495783 1.710084 -0.444122
A -1.956193 -0.868684 0.106099
A -2.027305 1.933223 -1.355477
A -0.940256 1.743661 -1.388373
A -0.710429 -2.167323 2.354885
A 1.701640 1.278772 0.947388
A 1.668439 1.061319 -0.058644
A 0.856242 0.377994 -1.847530
A -0.832282 0.471975 -0.045794
A -1.749935 1.288308 -2.010722
A -1.552059 0.456615 0.641852
A 0.517565 -1.052218 0.754080
A -2.031880 1.141042 2.048692
A 1.351379 2.083718 0.256611
A 1.711036 1.899394 2.050165
A 0.798170 0.127433 -0.486405
A 0.346897 2.179022 -1.633013
A -2.471854 0.457006 1.322649
A -0.753483 1.188365 1.109218
A 0.017562 0.869903 -2.459852
A 0.823446 1.611401 1.478938
A -1.978390 0.282010 -1.588842
A -1.480096 -0.460561 2.259857
A -1.420227 -2.371794 -0.954830
A -2.079679 -0.614554 -1.936927
A 0.108682 -0.108926 0.191555
A -0.642653 0.059750 -0.940436
A 1.947230 -0.925364 -1.733675
A 1.431905 -1.295670 -0.807691
A -0.277593 -1.789275 1.328322
A -1.041260 -0.348381 -1.833448
A 1.419468 0.696637 -1.072389
A -0.037600 -0.083413 -1.837495
A -2.473466 -2.161071 -1.322207
A 0.870278 -0.772980 -0.177891
A -1.263897 1.933711 1.666263
A -0.135824 1.583183 1.734280
A -0.565439 0.053456 2.316889
A 0.786960 1.662098 -2.406479
A 1.155771 -1.790408 0.049543
A 0.243104 -2.470840 2.026908
A 0.038481 -0.644850 1.669072
A 0.536741 2.483846 -0.358403
A 0.431304 -0.917294 -2.430920
A -1.289779 -2.164348 1.014578
A -0.193878 1.809382 -0.691690
A -2.290338 0.149668 2.390863
A 2.040731 2.210516 -1.913384
A -0.895547 2.484788 -0.078130
A 1.193799 -2.376898 -1.193060
A -2.194113 2.099625 2.359799
A 1.220713 0.856452 2.239657
A -0.453771 -0.899814 0.792752
A 0.085566 0.912035 -0.365119
A 2.010450 0.188333 -1.791943
A 2.096098 -2.024771 -0.414773
A -1.490038 -0.567552 0.954074
A 2.354450 2.003922 0.257083
A 1.760972 -1.194779 0.979580
A -1.139787 -1.463249 0.351438
A -2.145020 0.262261 -0.223637
A 0.750715 -0.604436 -1.325172
A 0.121381 -1.863811 -1.988757
A -0.289071 -0.998308 -1.516911
A 1.208896 -2.334326 1.460290
A 1.773560 -0.023377 -0.270699
A -0.771787 -1.594665 -0.673014
A -0.372866 1.905729 -2.335024
A 0.580160 0.116550 2.175876
A -0.485412 0.121391 1.187396
A 2.386822 -0.325486 0.739188
A 2.368499 1.100885 -1.413411
A 0.659971 -1.522129 1.696372
A 0.159086 1.058413 -1.370154
A -1.929725 -1.520628 -0.651492
A 1.141323 -2.292179 -2.456078
A -1.072967 -1.296857 1.673508
A -2.371657 1.230080 -0.500760
A 2.167222 -2.232665 1.572053
A 0.391532 -1.670002 -0.956686
A -1.903819 -2.293219 0.073869
A -1.479511 -0.544664 -0.869738
A 1.410002 -0.443359 -2.487276
A -2.274902 1.091176 0.483821
A 1.707203 -1.456666 2.167681
A 0.453657 -2.188866 0.741227
A -0.630962 -2.316251 -1.482845
A 0.030122 -1.671823 -0.009340
A -0.885103 0.739438 -1.804564
A 1.586448 0.373034 1.389404
A -0.114715 -0.722968 -0.572263
A -2.118982 -1.491193 0.914659
A 1.353950 1.557876 -1.556048
A -1.665220 -2.019517 1.984278
A 0.448623 0.687647 1.317335
A -1.436437 0.737465 -0.829750
A -2.129087 -1.105134 1.871125
A 0.335099 1.534923 0.464265
A -2.391539 -1.633729 -2.272977
A -0.953704 -0.512291 0.054584
A -1.325932 0.303770 1.664401
A 0.924437 1.581217 -0.632259
A -2.471217 -0.378941 -0.924303
A -1.655165 -2.291084 -2.010831
A 0.904201 0.640013 0.423118
A 1.058454 -0.529774 1.555156
A 2.091496 -0.488287 1.687217
A -0.481777 2.172950 0.885729
A 1.908315 2.044378 -0.757772
B -2.110323 -2.454298 0.910875
B -0.464633 0.718534 1.809177
B -1.555308 1.026539 0.010318
B -2.477717 -1.514971 0.175581
B -1.635673 -1.296870 -2.487870
B -0.584582 0.967050 -0.895427
B -0.492185 -2.018762 0.582326
B -0.020824 -1.670685 2.209476
B -1.469940 0.334055 -2.312731
B -0.558422 2.339483 1.716816
B 2.205774 0.539457 -0.841767
B 2.297432 -1.215840 -0.817701
B 0.261850 2.152760 1.273672
B -2.297538 2.270308 -0.586418
B -0.216535 0.821508 0.676587
B 2.008604 0.483279 0.570742
B 2.017135 1.086603 1.724294
B -1.599515 1.241722 1.238441
B 0.183269 0.266783 -1.009825
B 1.148957 -1.681364 0.838957
B 1.980755 -2.232159 2.420969
B 0.504776 -0.161163 1.066224
B 1.816733 0.224481 2.120529
B -2.024120 -0.297237 1.602970
B 1.621529 -0.299196 -1.211097
B -0.295478 -2.314575 -0.691234
B 1.810449 2.222285 0.947622
B 2.251927 -0.675246 2.493526
B -1.262948 2.158069 2.424303
B -0.873568 -0.507018 1.664841
150
step:1 columns:species,position dt:0.002 cell:5.0,5.0,5.0 
A -0.684671 1.518248 0.113208
A -0.958114 1.121159 2.254465
A 1.406092 -0.236617 0.629065
A -1.240357 -1.369616 -1.660179
A -1.490955 1.882694 0.631947
A 2.056199 1.057944 -2.325398
A 1.874742 -0.944332 0.073104
A 1.062038 -1.549912 -1.811261
A -0.652532 -1.031842 2.487650
A -2.413636 1.780469 1.272227
A 2.021616 -2.097668 0.555860
A -1.493484 1.709676 -0.443867
A -1.954773 -0.871226 0.105109
A -2.028308 1.936962 -1.355749
A -0.938873 1.744515 -1.389092
A -0.713594 -2.165641 2.353964
A 1.703185 1.275744 0.946348
A 1.671144 1.063916 -0.061501
A 0.853579 0.377542 -1.846159
A -0.831844 0.472291 -0.047936
A -1.748629 1.290198 -2.011772
A -1.554933 0.454634 0.643365
A 0.514105 -1.052779 0.751913
A -2.032096 1.140135 2.048535
A 1.354479 2.084224 0.259222
A 1.710822 1.898030 2.050817
A 0.792397 0.127065 -0.486247
A 0.344405 2.179610 -1.634254
A -2.476743 0.456255 1.320536
A -0.754634 1.187677 1.111702
A 0.017854 0.869518 -2.459147
A 0.819877 1.613585 1.476598
A -1.977384 0.279389 -1.590958
A -1.480846 -0.457035 2.261186
A -1.421498 -2.372736 -0.957280
A -2.079691 -0.616206 -1.935559
A 0.105907 -0.109959 0.189775
A -0.644065 0.060869 -0.940337
A 1.948495 -0.923298 -1.731395
A 1.429154 -1.294937 -0.811529
A -0.277643 -1.785691 1.327871
A -1.041993 -0.348361 -1.833509
A 1.419580 0.694684 -1.070241
A -0.035689 -0.084185 -1.836955
A -2.472033 -2.159243 -1.321505
A 0.871758 -0.773957 -0.180185
A -1.264919 1.935418 1.668066
A -0.135455 1.581620 1.734841
A -0.561948 0.055860 2.315331
A 0.786890 1.658776 -2.408967
A 1.156215 -1.790731 0.051337
A 0.245803 -2.469483 2.029523
A 0.037373 -0.647556 1.669978
A 0.542317 2.484209 -0.360892
A 0.431873 -0.914719 -2.433154
A -1.288049 -2.166010 1.017124
A -0.192179 1.809699 -0.687729
A -2.291158 0.147902 2.394535
A 2.038970 2.214671 -1.913622
A -0.897590 2.484468 -0.077964
A 1.194284 -2.377653 -1.190956
A -2.198858 2.098128 2.359116
A 1.224517 0.851962 2.238771
A -0.456063 -0.901545 0.794011
A 0.086503 0.914582 -0.366429
A 2.011050 0.190353 -1.790215
A 2.095481 -2.022776 -0.416834
A -1.486242 -0.567593 0.953773
A 2.355106 2.005293 0.260526
A 1.760793 -1.195881 0.980802
A -1.141546 -1.467148 0.352981
A -2.145738 0.264215 -0.225845
A 0.744803 -0.604215 -1.324974
A 0.124741 -1.863095 -1.988255
A -0.287782 -0.999481 -1.516882
A 1.206117 -2.333659 1.458476
A 1.772743 -0.022232 -0.268988
A -0.773820 -1.590859 -0.674368
A -0.371100 1.907326 -2.334657
A 0.580529 0.119838 2.177586
A -0.484381 0.117250 1.185666
A 2.389360 -0.325473 0.737042
A 2.367228 1.099925 -1.412168
A 0.660854 -1.520418 1.694567
A 0.161190 1.057023 -1.370942
A -1.926068 -1.520851 -0.651927
A 1.140937 -2.293387 -2.452998
A -1.070121 -1.295767 1.673667
A -2.369448 1.229587 -0.499910
A 2.168220 -2.232836 1.575344
A 0.395216 -1.667621 -0.960791
A -1.899974 -2.292106 0.072814
A -1.479484 -0.542695 -0.867440
A 1.411825 -0.443426 -2.487294
A -2.273170 1.090627 0.481882
A 1.705968 -1.457283 2.168232
A 0.458403 -2.192103 0.742091
A -0.631010 -2.315957 -1.480245
A 0.032721 -1.672477 -0.010608
A -0.887825 0.738903 -1.802071
A 1.585805 0.374160 1.390650
A -0.113812 -0.721126 -0.572611
A -2.120625 -1.494005 0.916494
A 1.353256 1.556883 -1.554483
A -1.666838 -2.016292 1.985530
A 0.447552 0.685956 1.319463
A -1.438830 0.735795 -0.829889
A -2.128658 -1.105483 1.871768
A 0.334411 1.534329 0.466770
A -2.390186 -1.635023 -2.269550
A -0.957776 -0.512455 0.055772
A -1.323928 0.303702 1.663471
A 0.925690 1.580428 -0.631390
A -2.477119 -0.378541 -0.926091
A -1.653117 -2.289915 -2.009424
A 0.903407 0.640537 0.422286
A 1.058994 -0.530473 1.553233
A 2.095639 -0.487149 1.682857
A -0.479864 2.169717 0.885108
A 1.907175 2.042844 -0.757405
B -2.110955 -2.457657 0.910741
B -0.463716 0.721775 1.808095
B -1.557695 1.025364 0.011546
B -2.479502 -1.516856 0.176546
B -1.635581 -1.296778 -2.489263
B -0.586246 0.966023 -0.895879
B -0.492835 -2.018254 0.583272
B -0.019643 -1.670020 2.207492
B -1.472182 0.335346 -2.312849
B -0.558064 2.336741 1.716236
B 2.204543 0.537240 -0.843146
B 2.294389 -1.216031 -0.815420
B 0.260448 2.152645 1.271239
B -2.296060 2.273798 -0.589082
B -0.216844 0.824017 0.677131
B 2.008898 0.478693 0.570303
B 2.019105 1.089208 1.725517
B -1.600683 1.239918 1.234558
B 0.181090 0.268732 -1.010224
B 1.146189 -1.679050 0.835460
B 1.983451 -2.233207 2.421546
B 0.506209 -0.160969 1.068684
B 1.816886 0.223421 2.119174
B -2.027056 -0.299010 1.604862
B 1.623281 -0.296690 -1.205555
B -0.293917 -2.313904 -0.694063
B 1.810013 2.226392 0.948656
B 2.251727 -0.674983 2.489491
B -1.264613 2.155013 2.419866
B -0.871888 -0.505336 1.664336
150
step:2 columns:species,position dt:0.002 cell:5.0,5.0,5.0 
A -0.681894 1.520609 0.113329
A -0.959994 1.118763 2.254593
A 1.403772 -0.240002 0.629366
A -1.240123 -1.368909 -1.662188
A -1.491014 1.882148 0.628706
A 2.057545 1.058354 -2.320773
A 1.875387 -0.945169 0.075174
A 1.062622 -1.548192 -1.812071
A -0.651812 -1.030107 2.489149
A -2.413294 1.777893 1.273094
A 2.021855 -2.096368 0.556305
A -1.491210 1.709390 -0.443686
A -1.953396 -0.873629 0.104057
A -2.029377 1.940708 -1.355941
A -0.937543 1.745247 -1.389834
A -0.716797 -2.163855 2.353127
A 1.704730 1.272791 0.945290
A 1.673935 1.066522 -0.064433
A 0.850980 0.377104 -1.844803
A -0.831323 0.472719 -0.050013
A -1.747265 1.291992 -2.012865
A -1.557745 0.452558 0.645000
A 0.510766 -1.053348 0.749756
A -2.032326 1.139154 2.048249
A 1.357446 2.084736 0.261791
A 1.710638 1.896654 2.051459
A 0.786686 0.126854 -0.486182
A 0.341917 2.180185 -1.635412
A -2.481351 0.455621 1.318494
A -0.756062 1.186974 1.114231
A 0.018177 0.869219 -2.458386
A 0.816550 1.615736 1.474280
A -1.976304 0.276920 -1.593011
A -1.481576 -0.453566 2.262538
A -1.422936 -2.373649 -0.959613
A -2.079712 -0.618068 -1.934188
A 0.103065 -0.110940 0.188173
A -0.645451 0.062017 -0.940317
A 1.949745 -0.921279 -1.729057
A 1.426448 -1.294227 -0.815507
A -0.277643 -1.782147 1.327565
A -1.042785 -0.348271 -1.833511
A 1.419676 0.692689 -1.068020
A -0.033765 -0.084893 -1.836387
A -2.470582 -2.157288 -1.320773
A 0.873200 -0.775065 -0.182391
A -1.266069 1.937041 1.669643
A -0.135079 1.580012 1.735508
A -0.558477 0.058202 2.313736
A 0.786739 1.655540 -2.411485
A 1.156649 -1.791067 0.052958
A 0.248532 -2.468137 2.032154
A 0.036187 -0.650274 1.670877
A 0.547850 2.484558 -0.363348
A 0.432458 -0.912155 -2.435324
A -1.286307 -2.167744 1.019758
A -0.190451 1.810136 -0.683873
A -2.292056 0.146176 2.398135
A 2.037180 2.218781 -1.913910
A -0.899553 2.484256 -0.077760
A 1.194781 -2.378388 -1.188865
A -2.203628 2.096666 2.358403
A 1.228289 0.847475 2.237778
A -0.458343 -0.903254 0.795388
A 0.087491 0.916998 -0.367628
A 2.011611 0.192291 -1.788510
A 2.094891 -2.020725 -0.418942
A -1.482436 -0.567623 0.953592
A 2.355838 2.006631 0.263909
A 1.760715 -1.196938 0.982300
A -1.143345 -1.471097 0.354405
A -2.146451 0.266146 -0.227975
A 0.738914 -0.603989 -1.324766
A 0.128076 -1.862387 -1.987784
A -0.286465 -1.000748 -1.516864
A 1.203259 -2.333070 1.456621
A 1.772005 -0.020957 -0.267386
A -0.775877 -1.586996 -0.675732
A -0.369379 1.908916 -2.334236
A 0.580801 0.122992 2.179285
A -0.483251 0.113107 1.183815
A 2.392038 -0.325506 0.734794
A 2.365955 1.099048 -1.411007
A 0.661778 -1.518672 1.692782
A 0.163300 1.055666 -1.371818
A -1.922390 -1.521089 -0.652408
A 1.140529 -2.294690 -2.449950
A -1.067403 -1.294724 1.673638
A -2.367253 1.229165 -0.498988
A 2.169418 -2.232987 1.578649
A 0.398889 -1.665218 -0.964940
A -1.896158 -2.290939 0.071763
A -1.479435 -0.540756 -0.865153
A 1.413634 -0.443474 -2.487248
A -2.271546 1.090094 0.480033
A 1.704716 -1.457826 2.168762
A 0.463148 -2.195416 0.742957
A -0.630891 -2.315579 -1.477799
A 0.035262 -1.673062 -0.011858
A -0.890482 0.738325 -1.799496
A 1.584825 0.375353 1.391698
A -0.112874 -0.719348 -0.572938
A -2.122247 -1.496863 0.918416
A 1.352547 1.555923 -1.552987
A -1.668555 -2.013203 1.986782
A 0.446396 0.684238 1.321623
A -1.441240 0.734170 -0.830083
A -2.128334 -1.105856 1.872350
A 0.333728 1.533782 0.469308
A -2.388922 -1.636312 -2.266108
A -0.961882 -0.512566 0.056826
A -1.322058 0.303770 1.662520
A 0.926905 1.579590 -0.630493
A -2.483133 -0.378184 -0.927932
A -1.650987 -2.288775 -2.007972
A 0.902580 0.641048 0.421454
A 1.059605 -0.531277 1.551331
A 2.099763 -0.485994 1.678531
A -0.477950 2.166522 0.884455
A 1.906044 2.041188 -0.757041
B -2.111626 -2.461013 0.910611
B -0.462592 0.724913 1.806807
B -1.560062 1.024145 0.012778
B -2.481321 -1.518794 0.177403
B -1.635379 -1.296684 -2.490587
B -0.587948 0.965016 -0.896347
B -0.493525 -2.017782 0.584099
B -0.018492 -1.669276 2.205459
B -1.474404 0.336640 -2.313006
B -0.557615 2.334049 1.715628
B 2.203368 0.534892 -0.844426
B 2.291320 -1.216224 -0.813140
B 0.259040 2.152648 1.268714
B -2.294529 2.277301 -0.591723
B -0.216955 0.826395 0.677498
B 2.009180 0.474112 0.569855
B 2.021098 1.091822 1.726787
B -1.601916 1.238080 1.230679
B 0.178870 0.270672 -1.010699
B 1.143299 -1.676819 0.832154
B 1.986200 -2.234279 2.422124
B 0.507570 -0.160737 1.071059
B 1.817161 0.222318 2.118101
B -2.030010 -0.300720 1.606728
B 1.625001 -0.294190 -1.199953
B -0.292306 -2.313226 -0.696857
B 1.809585 2.230368 0.949826
B 2.251573 -0.674741 2.485475
B -1.266284 2.152001 2.415683
B -0.870155 -0.503551 1.663808
150
step:4 columns:species,position dt:0.002 cell:5.0,5.0,5.0 
A -0.676258 1.524752 0.113825
A -0.964459 1.114433 2.255245
A 1.398632 -0.246834 0.630015
A -1.239861 -1.367606 -1.666186
A -1.491390 1.880962 0.622247
A 2.060540 1.059419 -2.311978
A 1.876994 -0.947175 0.078571
A 1.064040 -1.544332 -1.813556
A -0.649967 -1.026666 2.492494
A -2.412584 1.772795 1.274971
A 2.022373 -2.093409 0.557420
A -1.486740 1.709162 -0.443553
A -1.950791 -0.878032 0.101801
A -2.031721 1.948144 -1.356123
A -0.935031 1.746343 -1.391375
A -0.723276 -2.160003 2.351688
A 1.707816 1.267119 0.943117
A 1.679755 1.071742 -0.070491
A 0.846020 0.376288 -1.842125
A -0.830061 0.473917 -0.053935
A -1.744382 1.295317 -2.015147
A -1.563156 0.448113 0.648607
A 0.504464 -1.054504 0.745475
A -2.032831 1.136964 2.047292
A 1.362949 2.085770 0.266785
A 1.710355 1.893873 2.052708
A 0.775507 0.126892 -0.486325
A 0.336977 2.181290 -1.637477
A -2.489656 0.454727 1.314636
A -0.759738 1.185514 1.119395
A 0.018898 0.868907 -2.456686
A 0.810678 1.619895 1.469718
A -1.973926 0.272469 -1.596908
A -1.482959 -0.446834 2.265285
A -1.426300 -2.375374 -0.963890
A -2.079777 -0.622444 -1.931454
A 0.097174 -0.112743 0.185542
A -0.648138 0.064382 -0.940525
A 1.952198 -0.917376 -1.724226
A 1.421194 -1.292887 -0.823859
A -0.277447 -1.775214 1.327372
A -1.044525 -0.347873 -1.833336
A 1.419787 0.688575 -1.063369
A -0.029934 -0.086127 -1.835177
A -2.467632 -2.152992 -1.319228
A 0.875962 -0.777650 -0.186531
A -1.268760 1.939973 1.671934
A -0.134308 1.576684 1.737165
A -0.551611 0.062675 2.310446
A 0.786202 1.649317 -2.416592
A 1.157504 -1.791783 0.055572
A 0.254046 -2.465496 2.037427
A 0.033597 -0.655728 1.672639
A 0.558762 2.485227 -0.368156
A 0.433682 -0.907070 -2.439460
A -1.282795 -2.171438 1.025295
A -0.186906 1.811404 -0.676532
A -2.294104 0.142858 2.405090
A 2.033507 2.226846 -1.914612
A -0.903207 2.484170 -0.077254
A 1.195815 -2.379787 -1.184755
A -2.213217 2.093869 2.356906
A 1.235762 0.838579 2.235509
A -0.462888 -0.906598 0.798458
A 0.089616 0.921415 -0.369682
A 2.012601 0.195894 -1.785160
A 2.093782 -2.016469 -0.423269
A -1.474832 -0.567655 0.953601
A 2.357555 2.009202 0.270482
A 1.760847 -1.198935 0.986130
A -1.147049 -1.479106 0.356882
A -2.147868 0.269902 -0.232001
A 0.727233 -0.603526 -1.324316
A 0.134629 -1.861001 -1.986958
A -0.283760 -1.003555 -1.516861
A 1.197381 -2.332130 1.452814
A 1.770735 -0.018031 -0.264495
A -0.780049 -1.579124 -0.678475
A -0.366098 1.912068 -2.333255
A 0.581048 0.128821 2.182622
A -0.480696 0.104853 1.179759
A 2.397796 -0.325717 0.729971
A 2.363448 1.097572 -1.408875
A 0.663754 -1.515084 1.689268
A 0.167525 1.053072 -1.373827
A -1.915002 -1.521605 -0.653525
A 1.139680 -2.297579 -2.443960
A -1.062374 -1.292767 1.673049
A -2.362920 1.228550 -0.496972
A 2.172369 -2.233235 1.585274
A 0.406185 -1.660353 -0.973332
A -1.888651 -2.288450 0.069691
A -1.479315 -0.536970 -0.860622
A 1.417204 -0.443514 -2.486980
A -2.268655 1.089096 0.476642
A 1.702170 -1.458700 2.169770
A 0.472577 -2.202247 0.744665
A -0.630130 -2.314553 -1.473406
A 0.040173 -1.674048 -0.014304
A -0.895593 0.737042 -1.794112
A 1.581786 0.377907 1.393152
A -0.110903 -0.715998 -0.573546
A -2.125428 -1.502707 0.922502
A 1.351093 1.554103 -1.550222
A -1.672280 -2.007450 1.989276
A 0.443838 0.680743 1.326019
A -1.446104 0.731063 -0.830635
A -2.128002 -1.106669 1.873336
A 0.332387 1.532830 0.474478
A -2.386668 -1.638857 -2.259191
A -0.970158 -0.512638 0.058543
A -1.318714 0.304311 1.660551
A 0.929216 1.577769 -0.628607
A -2.495445 -0.377591 -0.931758
A -1.646485 -2.286605 -2.004970
A 0.900848 0.642035 0.419792
A 1.061045 -0.533197 1.547644
A 2.107908 -0.483634 1.670005
A -0.474154 2.160272 0.883049
A 1.903847 2.037527 -0.756308
B -2.113076 -2.467713 0.910358
B -0.459716 0.730861 1.803610
B -1.564710 1.021582 0.015228
B -2.485033 -1.522804 0.178795
B -1.634642 -1.296483 -2.493013
B -0.591449 0.963065 -0.897330
B -0.495012 -2.016961 0.585396
B -0.016288 -1.667552 2.201268
B -1.478777 0.339247 -2.313436
B -0.556426 2.328838 1.714359
B 2.201202 0.529805 -0.846675
B 2.285131 -1.216623 -0.808581
B 0.256191 2.153028 1.263438
B -2.291331 2.284347 -0.596929
B -0.216600 0.830763 0.677712
B 2.009701 0.464979 0.568924
B 2.025148 1.097068 1.729461
B -1.604580 1.234315 1.222940
B 0.174297 0.274522 -1.011887
B 1.137174 -1.672563 0.826213
B 1.991833 -2.236479 2.423284
B 0.510054 -0.160153 1.075534
B 1.818109 0.219962 2.116822
B -2.035948 -0.303939 1.610367
B 1.628340 -0.289205 -1.188581
B -0.288939 -2.311837 -0.702310
B 1.808761 2.237906 0.952605
B 2.251416 -0.674331 2.477527
B -1.269648 2.146170 2.408257
B -0.866549 -0.499689 1.662700
150
step:8 columns:species,position dt:0.002 cell:5.0,5.0,5.0 
A -0.664859 1.530492 0.115983
A -0.975933 1.107523 2.258059
A 1.386623 -0.260555 0.631478
A -1.240135 -1.365422 -1.674072
A -1.493154 1.878227 0.609577
A 2.067474 1.062598 -2.296730
A 1.881371 -0.952425 0.082300
A 1.068003 -1.534948 -1.816051
A -0.644783 -1.019915 -2.499630
A -2.411072 1.762825 1.279284
A 2.023528 -2.086116 0.560427
A -1.478131 1.709880 -0.444229
A -1.946330 -0.885325 0.096906
A -2.037284 1.962215 -1.355998
A -0.930556 1.747053 -1.394624
A -0.736291 -2.151368 2.349594
A 1.713969 1.256804 0.938513
A 1.692199 1.082111 -0.083183
A 0.837332 0.374992 -1.836866
A -0.826827 0.477699 -0.060615
A -1.738156 1.301090 -2.019919
A -1.572961 0.438031 0.656945
A 0.493406 -1.056820 0.737037
A -2.034038 1.131625 2.043880
A 1.372059 2.087835 0.276083
A 1.710065 1.888235 2.055040
A 0.754485 0.128607 -0.487627
A 0.327444 2.183286 -1.640545
A 2.497706 0.454534 1.307858
A -0.770166 1.182273 1.129882
A 0.020533 0.869601 -2.452516
A 0.802391 1.627406 1.460914
A -1.968347 0.265599 -1.603696
A -1.485308 -0.434410 2.270795
A -1.434736 -2.378277 -0.970705
A -2.079989 -0.633869 -1.926078
A 0.084549 -0.115679 0.182781
A -0.653102 0.069272 -0.942030
A 1.956842 -0.910096 -1.714067
A 1.411447 -1.290581 -0.841966
A -0.275983 -1.762273 1.328492
A -1.048474 -0.346172 -1.832211
A 1.419497 0.679925 -1.053357
A -0.022746 -0.087949 -1.832557
A -2.461620 -2.142841 -1.315896
A 0.880943 -0.784080 -0.193663
A -1.275747 1.944169 1.671824
A -0.132720 1.569713 1.741773
A -0.538290 0.070645 2.303519
A 0.784263 1.637797 -2.427011
A 1.159294 -1.793396 0.057635
A 0.265087 -2.460555 2.047789
A 0.027614 -0.666618 1.675918
A 0.579810 2.486499 -0.377290
A 0.436418 -0.897133 -2.446771
A -1.275729 -2.179802 1.037486
A -0.179419 1.815731 -0.663685
A -2.299318 0.136825 2.417890
A 2.025750 2.242254 -1.916275
A -0.909206 2.485441 -0.075976
A 1.198052 -2.382224 -1.177033
A -2.232463 2.088865 2.353689
A 1.250530 0.821603 2.230163
A -0.472056 -0.912902 0.805601
A 0.094416 0.928457 -0.372377
A 2.013954 0.201833 -1.778632
A 2.091761 -2.007490 -0.432166
A -1.459884 -0.567656 0.955193
A 2.362144 2.013937 0.282804
A 1.762116 -1.202561 0.997039
A -1.154817 -1.495337 0.360291
A -2.150732 0.276731 -0.239095
A 0.704434 -0.602591 -1.323222
A 0.147052 -1.858385 -1.985963
A -0.278171 -1.010185 -1.516987
A 1.185510 -2.331215 1.445074
A 1.768857 -0.010793 -0.259841
A -0.788532 -1.562959 -0.683953
A -0.360317 1.918222 -2.330897
A 0.580329 0.138114 2.188930
A -0.474434 0.088740 1.170277
A 2.410748 -0.326745 0.718877
A 2.358871 1.095864 -1.404844
A 0.668202 -1.507552 1.682490
A 0.175895 1.048528 -1.378818
A -1.900286 -1.522720 -0.656475
A 1.138022 -2.304473 -2.432408
A -1.054106 -1.289237 1.670018
A -2.354534 1.228351 -0.492561
A 2.180190 -2.233565 1.598382
A 0.420446 -1.650465 -0.990229
A -1.874414 -2.282894 0.065743
A -1.479229 -0.529739 -0.851834
A 1.424074 -0.443359 -2.485831
A -2.264538 1.087462 0.471339
A 1.696961 -1.459661 2.171610
A 0.490768 -2.216566 0.747700
A -0.626500 -2.311328 -1.466796
A 0.049288 -1.675426 -0.019018
A -0.904967 0.733975 -1.782509
A 1.571148 0.383390 1.393385
A -0.106698 -0.710200 -0.574707
A -2.131498 -1.514847 0.931483
A 1.348065 1.550858 -1.545703
A -1.680844 -1.997758 1.994159
A 0.437801 0.673668 1.334978
A -1.455927 0.725499 -0.832407
A -2.128601 -1.108483 1.874670
A 0.329859 1.531488 0.485140
A -2.383276 -1.643723 -2.245352
A -0.986680 -0.512228 0.060470
A -1.313543 0.306977 1.656310
A 0.933320 1.573512 -0.624440
A 2.479163 -0.376828 -0.939853
A -1.636564 -2.282873 -1.998793
A 0.897212 0.643875 0.416480
A 1.064826 -0.538266 1.541105
A 2.123425 -0.478712 1.653613
A -0.466982 2.148545 0.879817
A 1.899937 2.028940 -0.754711
B -2.116332 -2.481020 0.909831
B -0.451562 0.741439 1.794892
B -1.573471 1.016013 0.019900
B -2.492485 -1.531168 0.180316
B -1.631815 -1.295972 -2.496884
B -0.598763 0.959449 -0.899458
B -0.498317 -2.015868 0.586608
B -0.012331 -1.663202 2.192547
B -1.487155 0.344604 -2.314788
B -0.552877 2.319257 1.711784
B 2.197762 0.518111 -0.849903
B 2.272737 -1.217481 -0.799443
B 0.250339 2.155344 1.252337
B -2.284535 2.298602 -0.606944
B -0.213795 0.838076 0.676245
B 2.010511 0.446896 0.566859
B 2.033486 1.107566 1.735301
B -1.610739 1.226496 1.207576
B 0.164537 0.282053 -1.015283
B 1.123754 -1.664563 0.817615
B 2.003491 -2.240964 2.425592
B 0.513950 -0.158483 1.083308
B 1.821727 0.214536 2.117587
B -2.047702 -0.309453 1.617195
B 1.634557 -0.279302 -1.165263
B -0.281619 -2.308860 -0.712463
B 1.807272 2.251246 0.960055
B 2.251740 -0.673856 2.462096
B -1.276471 2.135638 2.398397
B -0.858936 -0.490947 1.660427
150
step:16 columns:species,position dt:0.002 cell:5.0,5.0,5.0 
A -0.643246 1.530684 0.125208
A -1.005149 1.098901 2.267736
A 1.357893 -0.287237 0.633917
A -1.243594 -1.362514 -1.689050
A -1.500484 1.871353 0.586117
A 2.083186 1.073420 -2.279430
A 1.893651 -0.966975 0.078497
A 1.081180 -1.510064 -1.820469
A -0.629663 -1.007247 -2.481404
A -2.407794 1.743936 1.289955
A 2.025423 -2.067854 0.569078
A -1.462141 1.714366 -0.449269
A -1.941559 -0.894891 0.087062
A -2.052571 1.982953 -1.356448
A -0.923383 1.743072 -1.401358
A -0.760883 -2.131759 2.347557
A 1.726318 1.240934 0.927987
A 1.719261 1.101898 -0.109380
A 0.827214 0.374416 -1.826587
A -0.818705 0.490647 -0.068118
A -1.725154 1.310464 -2.029105
A -1.588088 0.413578 0.676214
A 0.477334 -1.060889 0.720760
A -2.037308 1.117075 2.031738
A 1.382080 2.091710 0.291455
A 1.710133 1.877069 2.058898
A 0.719829 0.136217 -0.493215
A 0.311250 2.186211 -1.641853
A 2.487841 0.460572 1.298193
A -0.800223 1.173638 1.148954
A 0.023617 0.877201 -2.440825
A 0.800591 1.638194 1.444706
A -1.954669 0.259460 -1.612461
A -1.487817 -0.414979 2.280565
A -1.455048 -2.380794 -0.976647
A -2.080280 -0.666556 -1.915965
A 0.056171 -0.118622 0.188281
A -0.661095 0.078691 -0.949627
A 1.964339 -0.897716 -1.692836
A 1.396093 -1.287559 -0.882290
A -0.266987 -1.742567 1.335153
A -1.057233 -0.339166 -1.826548
A 1.415812 0.661680 -1.031526
A -0.013645 -0.089561 -1.827484
A -2.449784 -2.116420 -1.309118
A 0.888403 -0.799881 -0.203367
A -1.295659 1.944962 1.649158
A -0.129396 1.555587 1.755396
A -0.514061 0.081984 2.288495
A 0.777573 1.617997 -2.448153
A 1.164173 -1.797144 0.047179
A 0.285713 -2.452666 2.066409
A 0.013062 -0.687721 1.680786
A 0.617289 2.488978 -0.392812
A 0.443578 -0.878646 -2.456616
A -1.261715 -2.200333 1.066101
A -0.162652 1.832559 -0.647268
A -2.314754 0.127411 2.438226
A 2.008579 2.269311 -1.918353
A -0.914061 2.493633 -0.073140
A 1.203775 -2.385111 -1.165444
A -2.270258 2.081440 2.346788
A 1.279522 0.794583 2.219294
A -0.491443 -0.923546 0.821389
A 0.105542 0.935128 -0.372310
A 2.013579 0.207816 -1.765935
A 2.087717 -1.989019 -0.449308
A -1.432864 -0.567761 0.965180
A 2.376362 2.022103 0.303941
A 1.767316 -1.209031 1.029712
A -1.171311 -1.526942 0.360994
A -2.157114 0.285723 -0.249206
A 0.662797 -0.601010 -1.319717
A 0.168051 -1.853955 -1.988003
A -0.267220 -1.026850 -1.517734
A 1.165644 -2.333361 1.431888
A 1.766583 0.008042 -0.253516
A -0.805396 -1.529949 -0.694454
A -0.352993 1.929693 -2.325866
A 0.574093 0.144813 2.199565
A -0.457807 0.060125 1.146121
A 2.441212 -0.331000 0.690624
A 2.353095 1.097794 -1.393356
A 0.679093 -1.491567 1.670058
A 0.191595 1.043373 -1.391997
A -1.872261 -1.524565 -0.665652
A 1.136075 -2.322155 -2.410671
A -1.045738 -1.282402 1.659406
A -2.339115 1.233040 -0.484569
A 2.201568 -2.233818 1.622379
A 0.446504 -1.630852 -1.022379
A -1.851456 -2.269817 0.059252
A -1.481241 -0.516552 -0.836281
A 1.436212 -0.442183 -2.481521
A -2.264313 1.085856 0.468673
A 1.686430 -1.459012 2.174883
A 0.521150 -2.246397 0.748830
A -0.612438 -2.300114 -1.462820
A 0.064642 -1.676774 -0.028081
A -0.920080 0.725978 -1.756900
A 1.533577 0.393024 1.384408
A -0.098052 -0.702598 -0.577653
A -2.142256 -1.540572 0.951236
A 1.341664 1.545671 -1.541221
A -1.701916 -1.986492 2.002980
A 0.422496 0.660487 1.352512
A -1.475179 0.717567 -0.838453
A -2.134654 -1.112237 1.875668
A 0.326037 1.531013 0.507249
A -2.380842 -1.651939 -2.218715
A -1.017176 -0.509385 0.059045
A -1.308263 0.317933 1.646671
A 0.939152 1.562421 -0.614447
A 2.429055 -0.376575 -0.956367
A -1.613609 -2.278677 -1.987209
A 0.890082 0.647096 0.410021
A 1.075700 -0.553005 1.533777
A 2.147761 -0.467993 1.624350
A -0.457131 2.129513 0.871605
A 1.895499 2.007824 -0.750357
B -2.123733 2.493089 0.908477
B -0.427928 0.757880 1.771200
B -1.587262 1.003492 0.026990
B 2.495012 -1.547636 0.178462
B -1.621003 -1.294068 2.499696
B -0.614018 0.953651 -0.904124
B -0.505401 -2.016078 0.584491
B -0.006476 -1.651165 2.174794
B -1.501838 0.356481 -2.319682
B -0.541924 2.304016 1.707610
B 2.195454 0.489508 -0.851625
B 2.248967 -1.219097 -0.781145
B 0.239152 2.165333 1.231206
B -2.270304 2.327898 -0.624569
B -0.202340 0.848368 0.667818
B 2.010795 0.411949 0.561575
B 2.050956 1.128031 1.748424
B -1.627025 1.210041 1.177463
B 0.142241 0.296082 -1.026467
B 1.094207 -1.648354 0.815602
B 2.027403 -2.248995 2.429744
B 0.516942 -0.153275 1.093907
B 1.836207 0.200519 2.128680
B -2.067928 -0.315776 1.628739
B 1.643756 -0.259676 -1.117336
B -0.264370 -2.301686 -0.728142
B 1.805287 2.270917 0.982821
B 2.255172 -0.674634 2.433817
B -1.290404 2.120085 2.402653
B -0.843401 -0.470882 1.656740
150
step:32 columns:species,position dt:0.002 cell:5.0,5.0,5.0 
A -0.614096 1.487730 0.148847
A -1.056931 1.090670 2.286038
A 1.295341 -0.334940 0.623664
A -1.257734 -1.359793 -1.712088
A -1.527223 1.852977 0.548591
A 2.118417 1.110451 -2.299535
A 1.920651 -1.001817 0.043489
A 1.125157 -1.446060 -1.848300
A -0.590806 -0.986981 -2.452225
A -2.401827 1.713750 1.316317
A 2.015341 -2.039933 0.597727
A -1.430972 1.726213 -0.471447
A -1.952526 -0.905438 0.071272
A -2.102536 1.981754 -1.373176
A -0.912800 1.722422 -1.413493
A -0.795651 -2.089750 2.346784
A 1.752257 1.230067 0.901103
A 1.774492 1.133464 -0.154166
A 0.845243 0.380483 -1.809259
A -0.802980 0.531670 -0.060525
A -1.708133 1.327818 -2.039755
A -1.606475 0.358199 0.706541
A 0.460640 -1.060038 0.692659
A -2.046313 1.074577 1.996047
A 1.375939 2.097910 0.312260
A 1.707606 1.859535 2.062585
A 0.681637 0.145978 -0.507162
A 0.299443 2.187211 -1.621975
A -2.498737 0.489896 1.293093
A -0.867711 1.146393 1.165889
A 0.022859 0.912535 -2.406238
A 0.844000 1.645164 1.418293
A -1.928094 0.262694 -1.612784
A -1.484352 -0.400008 2.287950
A -1.479844 -2.373092 -0.962109
A -2.074384 -0.750880 -1.898699
A -0.004900 -0.113801 0.234637
A -0.672088 0.088656 -0.974121
A 1.964834 -0.886116 -1.661088
A 1.391444 -1.282748 -0.957392
A -0.223568 -1.740730 1.353524
A -1.073742 -0.315834 -1.803065
A 1.397506 0.629546 -0.989140
A -0.033578 -0.084888 -1.826668
A -2.429821 -2.047482 -1.300550
A 0.893640 -0.830268 -0.210493
A -1.351740 1.926569 1.571858
A -0.118819 1.536853 1.787155
A -0.479271 0.087920 2.254218
A 0.758295 1.590707 -2.489043
A 1.182629 -1.798336 -0.002305
A 0.312004 -2.445344 2.088945
A -0.020031 -0.724980 1.682470
A 0.660902 2.490398 -0.405151
A 0.466906 -0.850230 -2.454145
A -1.233969 -2.242900 1.129304
A -0.124840 1.890109 -0.648569
A -2.360030 0.116713 2.457276
A 1.970827 2.302662 -1.899815
A -0.885397 -2.476717 -0.070570
A 1.228900 -2.380447 -1.171686
A -2.335329 2.074051 2.334256
A 1.327022 0.779077 2.216955
A -0.530509 -0.940393 0.838883
A 0.124376 0.930282 -0.356723
A 1.999031 0.200732 -1.741997
A 2.073889 -1.964273 -0.469626
A -1.404526 -0.568641 1.010826
A 2.417740 2.037541 0.331028