500
step:0 columns:neighbors cell:8.37883605537,8.37883605537,8.37883605537
18 22 132 143 157 280 419 454
14 84 154 177 193 276 375 386 394 479 484
24 34 155 190 242 249 253 339 377 382 428
9 39 99 137 205 258 286 291 295 404 412 433 498
12 51 53 55 83 161 209 284 305 407 422 462 472
41 101 217 244 251 269 324 351 381 444 477
49 66 166 288 302 303 306 357 386 400 463 467
75 129 145 172 245 246 254 257 406 474
4 122 137 206 210 258 278 295 325 391 433 498
24 44 78 123 139 155 221 249 285 437 439 451 488
33 46 56 102 216 239 325 327 383 401 417
5 51 53 55 97 284 305 336 415 422 449 462 478
28 72 107 117 178 280 283 292 312 370
2 18 154 177 276 335 354 372 394 434 479
93 126 189 204 246 411 429 469 474 491 497
49 50 106 117 166 178 283 357 467 500
68 124 125 138 165 184 219 230 275 339 458
1 14 114 143 157 178 280 335 354 486
73 80 168 211 266 268 347 396 476
66 82 127 133 146 303 306 375 378 463 493
25 29 56 196 213 290 296 297 366 408 414 423 485
1 124 125 136 143 207 230 260 280 299 419 440
42 62 89 100 109 127 141 272 333 362 450 496
3 10 34 78 155 175 221 249 253 339 458
21 69 79 142 192 290 296 343 366 408 425 436 473
75 92 156 172 179 246 321 329 385 406 468
43 45 59 71 118 144 152 215 378 393 395 448 456
13 50 58 107 136 157 178 280 283 454 466
21 56 196 216 248 259 290 296 341 423
80 84 85 94 147 216 239 248 259 261 310 484
50 99 112 157 201 208 238 263 276 359 394 466
78 175 182 237 256 275 317 427 448 458
11 46 63 102 205 206 325 367 420 498
3 24 138 155 250 270 273 281 339 382
129 180 182 189 246 254 286 289 317 353 411
48 58 74 131 136 148 207 211 266 318 379 476
47 54 87 191 234 244 322 348 356 390 477 489
60 116 161 186 221 223 284 330 407 451
4 99 174 201 205 224 238 291 295 404 459
60 64 218 229 346 366 414 451 457 485
6 172 244 257 301 321 322 324 344 350 381 390 444 477
23 62 141 176 187 214 344 362 405 430 442
27 59 67 118 169 203 214 230 275 315 348 448
10 64 123 139 162 195 217 228 229 251 349 356 488
27 63 152 215 263 315 359 393 412 420 427 448
11 33 61 63 102 215 239 342 383 389 420
37 54 176 191 203 234 244 264 287 322 344 348 432
36 72 74 107 108 131 136 156 200 232 316 379
7 16 70 106 166 302 357 398 400 467
16 28 31 112 166 178 208 234 283 287 320 394 466 467
5 12 53 83 192 198 305 319 326 336 352 472 478
163 224 247 259 422 423 449 484
5 12 51 55 97 231 352 462 470 472 478 481
37 47 67 91 191 203 244 264 311 348 356
5 12 53 284 330 395 407 447 453 456 462
11 21 29 213 216 248 290 325 327 401 408 417
75 133 173 222 301 308 333 350 380 416 446
28 36 74 90 107 136 320 454 466
27 43 67 71 118 303 311 315 348 393 395
38 40 83 116 161 186 284 296 366 414 451 457 464 475
46 102 116 262 304 342 367 383 490
23 42 90 109 140 141 170 227 240 362 371 405 430 450 455
33 45 46 152 182 215 243 420 437 498
40 44 139 195 229 249 373 414 451 465 485
115 116 121 145 151 225 245 262 402 424 490
7 20 82 193 303 375 393 463
43 54 59 71 91 118 230 311 340 348 440
17 125 138 183 187 214 219 256 275 338 339
25 202 255 277 282 290 358 363 408 436 443 473
49 102 106 117 122 130 206 302 327 357 374 397
27 59 67 118 146 185 303 340 378 395 460 481
13 48 98 136 162 232 280 292 298 299 312 316 370
19 80 84 94 168 177 188 226 265 268 307
36 48 58 107 156 300 320 468 476
8 26 57 172 179 245 308 329 350 380 406 416 482
79 81 96 149 153 252 277 307 328 368 372 494
124 125 148 159 207 219 273 318 376 396 452 480
10 24 32 175 182 220 237 285 317 334 437
25 76 149 153 277 346 366 408 425 473 485 494
19 30 73 84 94 147 188 268 337 410
76 149 200 252 265 277 365 368 379 473
20 66 127 144 193 261 342 369 375 378 389 393 450 493
5 51 60 115 121 161 192 284 296 305 388 464 475
2 30 73 80 85 94 168 177 193 261 268 375 484
30 84 193 205 238 239 276 359 389 420 484
92 93 113 202 255 267 406 436 443 492
37 167 191 220 233 289 322 390 477 488 489
105 111 124 165 174 236 273 291 309 376 459
23 135 140 141 164 332 355 402 424 450 496
58 62 112 211 236 240 320 371 405 430 455
54 67 120 123 191 228 311 340 356 387 392 398 400 460 489
26 86 108 246 267 385 406
15 86 202 246 267 271 406 435 436 443 474 491
30 73 80 84 177 188 259 336 449 484
119 222 274 301 314 364 368 421 426 444
76 97 153 199 226 252 307 328 335 368 372 415
12 53 96 199 226 328 415 462 470 478 481
72 101 162 197 217 232 241 251 269 298 299 316 399
4 31 39 128 201 205 238 263 359 404 412 420
23 109 127 146 272 331 333 352 364 426 470 496
6 98 217 241 251 269 294 324 334 345 381 399 444 483
11 33 46 61 70 130 206 304 325 327 367 397 401
121 134 135 164 171 198 225 250 270 294 388 424 483
145 262 383 401 402 417 429 474 482
88 126 174 236 291 309 347 376 435 441 452 469 487
16 49 70 122 166 167 191 233 234 398 489 500
13 28 48 58 74 108 136 283 320 468
48 92 107 267 283 370 385 468 500
23 62 100 127 140 170 240 323 333 362 450 493
194 328 335 360 419 438 447 462 486
88 124 132 148 157 165 201 454 459
31 50 90 128 169 176 201 208 263 287 320 405 430 466
86 200 232 255 279 399 436 473 492
18 143 195 228 280 292 349 354 373 438 465 486
65 83 116 121 151 161 225 413 464 475
38 60 61 65 115 151 161 218 223 304 367 413 457 475 490 499
13 16 70 122 178 210 278 283 312 357 370 403 500
27 43 59 67 71 194 230 275 395 448 453
95 149 153 160 185 222 346 392 413 421 446 457 471
91 123 218 228 229 340 387 392 457 460 471
65 83 103 115 161 164 198 409 424 472
9 70 106 117 167 206 210 233 278 433 500
10 44 91 120 218 228 229 356 387 439 451 488 489
17 22 77 88 111 125 148 165 184 207 219 273
17 22 68 77 124 148 158 207 219 260 318 338
15 105 174 189 258 271 291 309 435 441 469 497
20 23 82 100 109 133 146 231 333 369 378 450 493 496
99 112 169 176 227 263 313 371 404 405 412 427
8 35 145 171 180 225 254 332 402 411 424
70 102 206 233 243 302 304 367 387 397 398 499
36 48 136 158 197 200 207 266 274 316 318 379 445
1 111 157 163 184 360 434 454
20 57 127 146 306 323 333 416 446 463 493
103 171 180 225 250 257 294 324 334 361 381 483
89 103 138 141 164 171 183 187 237 332 424
22 28 36 48 58 72 107 131 148 207 280 299 316 454
4 9 190 210 212 258 278 291 295 391 418 495
17 34 68 135 183 219 237 250 256 275 339 458
10 44 64 155 162 195 241 242 249 251 298
62 89 109 170 204 227 355 429 450 455 469
23 42 62 89 135 183 187 214 227 256 332 405
25 192 290 319 337 341 343 384 436 443 487 491
1 18 22 114 260 280 292 299 349 419 438 440
27 82 152 209 215 231 342 369 378 389 393 456
8 65 104 129 245 262 402 424 429 474 482
20 71 100 127 133 185 231 333 378 426 470 481
30 80 239 261 268 310 355 383 410 429
36 77 111 124 125 136 207 318 376 454
76 79 81 119 153 160 277 314 346 368 421 425
154 213 277 282 297 354 357 372 374 386 403 408 479 494
65 115 116 173 245 304 380 413 482 499
27 45 63 144 175 215 330 342 448 456
76 79 96 119 149 328 346 373 421 471 486 494
2 14 150 178 354 357 372 386 394 467 479
3 10 24 34 139 235 241 242 250 281 334 382 483
26 48 74 179 255 329 358 365 476
1 18 28 31 111 132 178 201 394 434 454 466
125 131 197 207 260 269 274 338 351 445
77 183 198 219 270 273 326 384 396 452 480
119 149 222 293 314 361 413 425 457 475
5 38 60 83 115 116 121 209 330 409 472 490
44 72 98 139 195 217 241 251 292 298 299 349
52 132 184 224 247 360 428 434 447 459
89 103 121 135 183 198 352 409 424 472 496
17 88 111 124 184 273 339 428 459
7 16 49 50 106 191 208 234 287 311 398 467 500
87 106 122 210 233 289 353 385 433 500
19 73 84 170 265 268 375 431 476
43 112 128 176 214 256 263 313 315 405 427
62 109 140 168 211 240 268 410 450 455 493
103 129 134 135 180 237 250 332 424
8 26 41 75 246 254 257 321 322 350 385 390
57 151 288 306 380 392 413 416 446 482 499
39 88 105 126 201 236 291 371 404 469 497
24 32 78 152 221 253 330 407 437 448 453 458
42 47 112 128 169 203 214 287 405 430 432
2 14 73 84 94 307 335 372 415 434 449 484
13 16 18 28 50 117 154 157 280 283 354 357 394
26 75 156 202 329 358 406 416 431 461 482
35 129 134 171 220 225 250 254 257 317 324 334 483
190 235 242 271 279 281 291 309 382 418 435 492
32 35 63 78 237 243 285 286 289 313 317 412 427 498
68 135 138 141 159 164 187 219 272 480
17 124 132 163 165 194 253 428 447 453 458
71 119 146 421 426 446 460 470 471 481
38 60 221 247 249 284 296 377 407 414 423 451
42 68 135 141 183 214 256 272 338 442
73 80 94 226 319 326 336 337 396 452 478
15 35 126 246 258 267 271 286 353 411 497
3 137 181 212 224 242 291 377 382 428 459 495
37 47 54 87 91 106 166 233 234 287 311 398 489
25 51 83 142 198 296 305 319 341 343 366 388 464
2 66 82 84 85 261 276 359 375 389 393 484
110 118 184 230 395 419 447 453
44 64 114 139 162 212 292 297 298 312 349 403 414 465
21 29 212 213 296 297 377 391 414 423 495
98 131 158 200 269 274 316 345 444 445
51 103 121 159 164 192 270 319 326 384 388
96 97 226 252 266 364 368 445 470 478 480
48 81 113 131 197 232 255 316 365 379 473
31 39 99 111 112 157 174 236 238 454 466
69 86 93 179 255 358 363 406 436 443
43 47 54 176 214 230 264 275 338 348 442
15 140 310 410 411 429 455 469 474 491 497
4 33 39 85 99 238 295 359 420
9 33 70 102 122 130 233 243 367 433 498
22 36 77 124 125 131 136 148 158 260 316 318 445
31 50 112 166 263 287 315 348 467
5 144 161 231 330 342 369 409 456 472 490
9 117 122 137 167 258 278 370 418 433 500
19 36 90 170 236 240 347 455 476
137 190 195 196 242 278 297 298 312 377 391 495
21 56 150 196 278 297 325 327 374 391 403 408
42 43 68 141 169 176 187 203 256 275 338 405 442
27 45 46 63 144 152 342 359 389 393 420
11 29 30 56 239 248 259 295 325 391
6 44 98 101 162 244 251 260 264 269 299 349 356 440 477
40 116 120 123 223 229 387 392 439 451 457 499
17 68 77 124 125 138 159 183 270 273 339
78 87 180 254 285 289 317 324 334 390 477 488
10 24 38 175 186 223 249 253 377 407 437 439 451
57 95 119 160 293 301 314 350 380 413 421 426 446
38 116 218 221 243 330 367 387 437 439 451
39 52 163 190 238 428 459
65 103 115 129 134 180 245 257 293 361 381 424
73 96 97 188 199 252 266 307 336 415 478
62 128 140 141 313 332 371 404 405 497
44 91 114 120 123 229 340 349 356 373 438 440
40 44 64 120 123 218 228 346 373 451 457 465
17 22 43 67 118 194 203 264 275 338 419 440
53 127 144 146 209 352 369 378 409 456 470 472 481 496
48 72 98 113 200 235 279 298 316 399 492
87 106 122 130 167 191 206 243 289 398 433 489 500
37 47 50 106 166 191 287 320 322 385 432 468 500
155 181 232 241 242 279 281 298 382 399 418 492
88 90 105 174 201 211 347 371 376 455 469
32 78 135 138 171 182 256 313 317 332 427
31 39 85 99 201 205 224 276 359 434 484
11 30 46 85 147 216 261 383 389 420
62 90 109 170 211 300 323 329 362 430 455 476
98 101 139 155 162 235 242 251 281 298 334 399 483
3 139 155 181 190 212 235 241 249 298 377 382 418
63 130 182 206 223 233 285 367 387 437 439 498
6 37 41 47 54 217 264 269 322 344 351 356 442 477
8 65 75 145 151 225 257 293 350 380 482
8 15 26 35 92 93 172 189 254 267 353 406 411 474
52 163 186 253 284 377 407 422 423 428 447 495
29 30 56 216 259 310 337 341 417
3 10 24 64 139 186 221 242 377 414 451
34 103 134 138 155 171 180 270 334 483
6 44 98 101 139 162 217 241 324 334 477 483 488
76 81 96 199 226 265 266 307 365 368 379 445
3 24 175 184 221 247 339 377 407 428 447 453 458
8 35 129 172 180 220 246 257 289 324 353 390
69 86 113 156 200 202 358 365 436 473
32 68 138 141 169 187 214 237 275 313 405 427
8 41 134 172 180 225 245 254 293 324 350 381 390
4 9 126 137 189 210 267 271 286 291 353 418 433
29 30 52 94 216 248 336 341 422 423 449
22 125 143 158 207 217 264 269 299 338 351 440
30 82 84 147 193 239 268 375 389
61 65 104 145 342 355 383 402 409 429 490
31 45 99 112 128 169 208 315 359 412 427
47 54 203 217 230 244 260 269 338 351 356 440
73 81 168 252 307 365 372 379 476 479
19 36 131 199 226 252 318 379 396 445
86 92 93 108 189 246 258 271 353 418 492
19 73 80 84 147 168 170 261 375 410
6 98 101 158 197 217 244 260 264 274 299 351 444
34 103 159 198 219 250 273 281 384 388
93 126 181 189 258 267 291 309 418 435 492
23 100 183 187 331 352 364 470 480 496
34 77 88 124 159 165 219 270 309 339 382 384 452
95 131 158 197 269 314 345 351 364 368 444 445
17 32 43 68 118 138 203 214 230 256 448 458
2 14 31 85 193 238 359 394 434 484
69 76 79 81 149 150 282 365 372 408 494
9 117 122 137 210 212 213 297 312 325 391 403
113 181 232 235 281 294 343 384 399 435 436 492
1 13 18 22 28 72 114 136 143 178 292 299 454
34 155 181 235 241 270 279 294 382 384 388 399 483
69 150 277 358 363 374 386 408 461 479
13 16 28 50 107 108 117 178 370 500
5 12 38 55 60 83 186 247 296 305 407 422 423
10 78 182 220 243 289 317 437 439 488
4 35 182 189 258 313 353 404 412 433 497 498
47 50 112 166 176 191 208 234 311 315 320 348 432
7 173 302 306 374 386 416 461 463
35 87 167 182 220 233 254 285 317 353 390 433
21 25 29 56 69 142 341 408 417 436 443
4 39 88 105 126 137 174 181 190 258 271 309 459
13 72 114 143 162 195 280 298 299 312 349 403 465
160 222 225 245 257 301 314 350 361 380 381 413 475
101 103 134 279 281 343 345 361 388 399 464 483
4 9 39 137 205 216 325 391 495
21 25 29 60 83 186 192 196 284 305 341 366 423
21 150 195 196 212 213 278 403 408 414 465 485
72 98 139 162 195 212 232 235 241 242 292 312 418 492
22 72 98 136 143 162 217 260 269 280 292 316 349
74 240 320 321 329 362 430 432 468
41 57 95 222 293 308 331 350 380 381 426 444
7 49 70 130 288 357 374 386 397 398 400 461 499
7 20 59 66 71 306 378 393 400 460
61 102 116 130 151 367 397 401 499
5 12 51 83 192 284 296 319 336 341 422
7 20 133 173 288 303 392 400 416 446 460 463
73 76 96 177 226 252 265 335 372 415 479
57 75 301 321 329 331 333 344 350 362
88 105 126 181 271 273 291 382 384 435 452 487
30 147 204 248 337 410 417 429 491
54 59 67 91 166 191 287 348 398 400 460
13 72 117 195 212 278 292 298 370 403 418
128 169 182 227 237 256 286 371 404 405 412 427 497
95 149 160 222 274 293 345 361 368 421 425 444
43 45 59 169 208 263 287 348 359 393
48 72 98 131 136 197 200 207 232 299
32 35 78 180 182 220 237 285 289
36 77 125 131 148 207 266 376 379 396 445 480
51 142 188 192 198 305 326 336 337 341 478 487
50 58 74 90 107 112 234 287 300 430 432 466 468
26 41 172 300 308 322 329 344 385 432 468
37 41 47 87 172 234 244 321 344 385 390 432
109 133 240 329 333 362 416 431 463 493
6 41 101 134 180 220 251 254 257 334 381 390 477 483
9 11 33 56 102 213 216 278 295 327 391
51 159 188 198 319 352 396 452 478 480
11 56 70 102 213 325 363 374 397 401
76 96 97 110 153 335 373 415 438 471 486
26 75 156 179 240 300 308 321 323 362 416 431 476
38 55 152 161 175 209 223 407 437 453 456 490
100 272 301 308 333 344 351 364 426 442
89 129 135 141 171 227 237 402 411 424
23 57 100 109 127 133 146 308 323 331 362 426 493
78 101 134 155 180 220 241 250 251 324 477 483 488
14 18 96 110 177 307 328 354 360 372 415 434 486
12 51 94 188 226 259 305 319 415 422 449 478
80 142 188 248 310 319 341 410 441 487 491
68 125 158 187 203 214 230 260 264 351 442
3 17 24 34 68 138 165 219 253 273 458
67 71 91 120 228 438 460 471
29 142 192 248 259 290 296 305 319 337
46 61 82 144 152 209 215 262 369 383 389 456 490
25 142 192 279 294 361 366 388 425 436 464 473
41 42 47 244 308 321 322 331 351 362 432 442
101 197 274 294 314 361 381 399 425 444
40 79 119 149 153 229 373 457 465 471 485 494
19 105 211 236 376 396 410 441 455 469
37 43 47 54 59 67 203 208 287 311 315
44 114 143 162 195 217 228 292 299 356 373 438 440
41 57 75 172 222 245 257 293 301 308 380
6 158 244 260 264 269 274 331 338 344 442 444
51 53 100 164 231 272 326 470 472 478 480 496
35 167 189 246 254 258 267 286 289 433
14 18 114 150 154 178 335 357 372 403 465 486 494
89 140 147 262 369 383 402 429 450
37 44 54 91 123 217 228 244 264 349 440 477
7 16 49 70 117 150 154 178 302 354 374 386 467
69 156 179 202 255 282 363 365 431 461
31 45 85 99 193 205 215 238 263 276 315 389 393 420
110 132 163 335 415 434 447 449 462
134 160 225 293 294 314 343 345 381 388 425 464 475
23 42 62 109 240 300 308 323 329 333 344 430
69 202 282 327 358 374 408 461
95 100 199 272 274 331 368 421 426 445 470 480
81 156 200 252 255 265 277 358 379 476
21 25 40 60 79 192 296 343 414 425 464 485
33 61 102 116 130 206 223 243 304 387 439 499
76 81 95 96 149 199 252 274 314 364 421 445
82 127 144 209 231 342 355 378 409 450 496
13 72 108 117 210 283 312 418 492 500
62 90 128 174 227 236 313 404 405 430 455 469 497
14 76 96 150 154 177 265 277 307 335 354 479 486 494
64 114 153 228 229 328 346 349 438 465 471 485 486 494
70 150 213 282 288 302 327 357 363 386 397 461
2 20 66 82 84 168 193 261 268 463 493
77 88 105 148 236 318 347 396 441 452
3 186 190 196 212 221 242 247 249 253 414 428 495
20 27 71 82 127 144 146 231 303 369 393 395 456 481
36 48 81 131 200 252 265 266 318 365 445 476
57 75 151 173 222 245 293 301 350 413 446 482
6 41 101 134 225 257 293 301 324 345 361 444
3 34 155 181 190 235 242 273 281 309 459
11 46 61 104 147 239 262 342 355 401 417 429
142 159 198 270 273 279 281 309 388 435 452 487
26 92 108 167 172 234 321 322 390 432 468 500
2 7 150 154 282 288 302 357 374 461 463 479
91 120 123 130 218 223 243 367 398 439 488 489 499
83 103 192 198 270 281 294 343 361 384 464
46 82 85 144 193 215 239 261 342 359 393 420
37 41 87 172 220 254 257 289 322 324 385 477
9 137 196 212 213 216 278 295 325 495
91 119 120 173 218 306 400 446 457 460 499
27 45 59 66 82 144 193 215 303 315 359 378 389
2 14 31 50 154 157 178 276 434 466 467
27 55 59 71 118 194 378 456 462 481
19 77 159 188 266 318 326 347 376 452 480
70 102 130 302 304 327 374 401 461 499
49 91 106 130 166 191 233 302 311 387 400 489 499
98 101 113 232 235 241 279 281 294 345 483 492
7 49 91 302 303 306 311 392 398 460 499
11 56 102 104 304 327 383 397 417
65 89 104 129 145 262 332 355 411 424 429 474
117 150 195 213 278 292 297 312 354 465 494
4 39 99 128 174 227 286 313 371 412 497
42 62 90 112 128 141 169 176 214 227 256 313 371 430
8 26 75 86 92 93 179 202 246 474 482
5 38 55 175 186 221 247 253 284 330 453
21 25 56 69 79 150 213 277 282 290 297 363 485
121 161 164 209 231 262 369 424 472 490 496
80 147 170 204 268 310 337 347 441 455 469 491
15 35 129 189 204 246 332 402 474 497
4 45 99 128 182 263 286 313 404 420 427
115 116 119 151 160 173 222 293 380 446 457 475
21 40 60 64 186 195 196 249 297 366 377 451 465 485
12 96 97 177 226 307 328 335 336 360 449 462 478
57 75 133 173 179 288 306 323 329 431 461 463
11 56 104 248 290 310 383 401 429 443 491
137 181 210 235 242 258 267 271 298 312 370 492
1 22 110 143 194 230 438 440
33 45 46 63 85 99 205 215 239 359 389 412 498
95 119 149 153 185 222 314 364 368 426 471
5 12 52 247 259 284 305 336 423 449
21 29 52 186 196 247 259 284 296 422 495
65 89 103 121 129 135 145 164 171 225 332 402 409
25 79 149 160 314 343 345 361 366 464 473 475
95 100 146 185 222 301 331 333 364 421 470
32 45 128 169 182 237 256 263 313 412 448
3 163 165 184 190 224 247 253 377 447 459 495
15 104 140 145 147 204 262 310 355 383 402 417 474
42 62 90 112 176 240 300 320 362 371 405 432
168 179 323 329 358 416 461 463 476
47 176 234 287 300 320 321 322 344 385 430 468
4 9 122 167 206 210 233 258 286 289 353 498
14 132 157 163 177 238 276 335 360 394 449 484
93 105 126 181 271 279 309 384 441 487 491
25 69 86 93 113 142 202 255 279 290 343 443 473
10 63 78 175 221 223 243 285 330 439 451
110 114 143 228 328 340 349 373 419 440 471 486
10 123 218 221 223 243 285 367 387 437 451 488 489
22 67 143 217 228 230 260 264 349 356 419 438
105 126 337 347 376 410 435 452 469 487 491
42 187 203 214 244 331 338 344 351
69 86 93 142 202 290 417 436 491
6 41 95 101 197 269 274 301 314 345 351 381
131 158 197 199 207 252 266 274 318 364 368 379 480
57 119 133 173 185 222 306 380 392 413 457 460
55 110 163 184 194 247 253 360 428 453 462
27 32 43 45 118 152 175 275 427 453 458
12 52 94 177 259 336 360 415 422 434 484
23 62 82 89 109 127 140 170 355 369 493 496
10 38 40 60 64 123 186 218 221 223 229 249 414 437 439
77 105 159 188 273 309 326 376 384 396 441 487
55 118 175 184 194 253 330 407 447 448 458
1 28 58 111 132 136 148 157 201 280 466
62 90 140 170 204 211 236 240 347 371 410 469 497
27 55 144 152 209 231 330 342 378 395
40 60 116 119 120 160 218 229 346 392 413 446 475
17 24 32 138 175 184 253 275 339 448 453
39 88 111 163 165 190 224 291 382 428
71 91 120 185 303 306 311 340 392 400 446 471
179 282 288 302 358 363 374 386 397 416 431 482
5 12 53 55 97 110 360 395 415 447 481
7 20 66 133 288 306 323 375 386 416 431 493
60 83 115 192 294 343 361 366 388 425 475
64 114 195 229 292 297 346 354 373 403 414 485 486 494
28 31 50 58 112 157 201 320 394 454
7 16 49 50 154 166 208 357 394
26 74 107 108 234 300 320 321 385 432
15 105 126 140 174 204 236 347 371 410 441 455 497
53 97 100 146 185 199 231 272 352 364 426 481
119 120 153 185 328 340 346 373 421 438 460
5 51 53 121 161 164 209 231 352 409 496
25 69 79 81 113 200 255 343 425 436
8 15 93 104 145 204 246 402 406 411 429 491
60 83 115 116 160 293 361 413 425 457 464
19 36 74 156 168 211 240 265 329 365 379 431
6 37 41 87 217 220 244 251 324 334 356 390 488
12 51 53 97 188 199 226 319 326 336 352 415
2 14 150 154 265 282 307 372 386
77 159 183 199 272 318 326 352 364 396 445
53 71 97 146 185 231 378 395 462 470
75 104 145 151 173 179 245 380 406 461
101 103 134 155 180 241 250 251 281 294 324 334 399
2 30 52 84 85 94 177 193 238 276 434 449
21 40 64 79 297 346 366 373 408 414 465 494
18 110 114 153 328 335 354 372 373 438 465 494
105 142 309 319 337 384 435 441 452 491
10 44 87 123 220 251 285 334 387 439 477 489
37 87 91 106 123 191 233 387 398 439 488
61 65 116 161 209 262 330 342 409
15 93 142 204 310 337 410 417 435 441 443 474 487
86 113 181 232 235 267 271 279 298 370 399 418
20 82 109 127 133 170 323 333 375 450 463
76 79 150 153 277 346 354 372 373 403 465 485 486
137 190 196 212 247 295 377 391 423 428
23 89 100 127 164 231 272 352 369 409 450 472
15 126 174 189 204 227 286 313 371 404 411 455 469
4 9 33 63 182 206 243 286 420 433
116 130 151 173 218 302 304 367 387 392 397 398 400
16 106 108 117 122 166 167 210 233 234 283 370 385
