108
step:0 columns:name,pos cell:4.7622031559,4.7622031559,4.7622031559 dt:0.002
A -2.381102 -2.381102 -2.381102
A -1.587401 -1.587401 -2.381102
A -2.381102 -1.587401 -1.587401
A -1.587401 -2.381102 -1.587401
A -2.381102 -2.381102 -0.793701
A -1.587401 -1.587401 -0.793701
A -2.381102 -1.587401 0.000000
A -1.587401 -2.381102 0.000000
A -2.381102 -2.381102 0.793701
A -1.587401 -1.587401 0.793701
A -2.381102 -1.587401 1.587401
A -1.587401 -2.381102 1.587401
A -2.381102 -0.793701 -2.381102
A -1.587401 0.000000 -2.381102
A -2.381102 0.000000 -1.587401
A -1.587401 -0.793701 -1.587401
A -2.381102 -0.793701 -0.793701
A -1.587401 0.000000 -0.793701
A -2.381102 0.000000 0.000000
A -1.587401 -0.793701 0.000000
A -2.381102 -0.793701 0.793701
A -1.587401 0.000000 0.793701
A -2.381102 0.000000 1.587401
A -1.587401 -0.793701 1.587401
A -2.381102 0.793701 -2.381102
A -1.587401 1.587401 -2.381102
A -2.381102 1.587401 -1.587401
A -1.587401 0.793701 -1.587401
A -2.381102 0.793701 -0.793701
A -1.587401 1.587401 -0.793701
A -2.381102 1.587401 0.000000
A -1.587401 0.793701 0.000000
A -2.381102 0.793701 0.793701
A -1.587401 1.587401 0.793701
A -2.381102 1.587401 1.587401
A -1.587401 0.793701 1.587401
A -0.793701 -2.381102 -2.381102
A 0.000000 -1.587401 -2.381102
A -0.793701 -1.587401 -1.587401
A 0.000000 -2.381102 -1.587401
A -0.793701 -2.381102 -0.793701
A 0.000000 -1.587401 -0.793701
A -0.793701 -1.587401 0.000000
A 0.000000 -2.381102 0.000000
A -0.793701 -2.381102 0.793701
A 0.000000 -1.587401 0.793701
A -0.793701 -1.587401 1.587401
A 0.000000 -2.381102 1.587401
A -0.793701 -0.793701 -2.381102
A 0.000000 0.000000 -2.381102
A -0.793701 0.000000 -1.587401
A 0.000000 -0.793701 -1.587401
A -0.793701 -0.793701 -0.793701
A 0.000000 0.000000 -0.793701
A -0.793701 0.000000 0.000000
A 0.000000 -0.793701 0.000000
A -0.793701 -0.793701 0.793701
A 0.000000 0.000000 0.793701
A -0.793701 0.000000 1.587401
A 0.000000 -0.793701 1.587401
A -0.793701 0.793701 -2.381102
A 0.000000 1.587401 -2.381102
A -0.793701 1.587401 -1.587401
A 0.000000 0.793701 -1.587401
A -0.793701 0.793701 -0.793701
A 0.000000 1.587401 -0.793701
A -0.793701 1.587401 0.000000
A 0.000000 0.793701 0.000000
A -0.793701 0.793701 0.793701
A 0.000000 1.587401 0.793701
A -0.793701 1.587401 1.587401
A 0.000000 0.793701 1.587401
A 0.793701 -2.381102 -2.381102
A 1.587401 -1.587401 -2.381102
A 0.793701 -1.587401 -1.587401
A 1.587401 -2.381102 -1.587401
A 0.793701 -2.381102 -0.793701
A 1.587401 -1.587401 -0.793701
A 0.793701 -1.587401 0.000000
A 1.587401 -2.381102 0.000000
A 0.793701 -2.381102 0.793701
A 1.587401 -1.587401 0.793701
A 0.793701 -1.587401 1.587401
A 1.587401 -2.381102 1.587401
A 0.793701 -0.793701 -2.381102
A 1.587401 0.000000 -2.381102
A 0.793701 0.000000 -1.587401
A 1.587401 -0.793701 -1.587401
A 0.793701 -0.793701 -0.793701
A 1.587401 0.000000 -0.793701
A 0.793701 0.000000 0.000000
A 1.587401 -0.793701 0.000000
A 0.793701 -0.793701 0.793701
A 1.587401 0.000000 0.793701
A 0.793701 0.000000 1.587401
A 1.587401 -0.793701 1.587401
A 0.793701 0.793701 -2.381102
A 1.587401 1.587401 -2.381102
A 0.793701 1.587401 -1.587401
A 1.587401 0.793701 -1.587401
A 0.793701 0.793701 -0.793701
A 1.587401 1.587401 -0.793701
A 0.793701 1.587401 0.000000
A 1.587401 0.793701 0.000000
A 0.793701 0.793701 0.793701
A 1.587401 1.587401 0.793701
A 0.793701 1.587401 1.587401
A 1.587401 0.793701 1.587401
108
step:10 columns:name,pos cell:4.7622031559,4.7622031559,4.7622031559 dt:0.002
A -2.381102 -2.381102 -2.381102
A -1.587401 -1.587401 -2.381102
A -2.381102 -1.587401 -1.587401
A -1.587401 -2.381102 -1.587401
A -2.381102 -2.381102 -0.793701
A -1.587401 -1.587401 -0.793701
A -2.381102 -1.587401 0.000000
A -1.587401 -2.381102 0.000000
A 2.381102 -2.381102 0.793701
A -1.587401 -1.587401 0.793701
A -2.381102 -1.587401 1.587401
A -1.587401 -2.381102 1.587401
A -2.381102 -0.793701 -2.381102
A -1.587401 0.000000 -2.381102
A -2.381102 0.000000 -1.587401
A -1.587401 -0.793701 -1.587401
A -2.381102 -0.793701 -0.793701
A -1.587401 0.000000 -0.793701
A -2.381102 0.000000 0.000000
A -1.587401 -0.793701 0.000000
A -2.381102 -0.793701 0.793701
A -1.587401 0.000000 0.793701
A -2.381102 0.000000 1.587401
A -1.587401 -0.793701 1.587401
A 2.381102 0.793701 -2.381102
A -1.587401 1.587401 -2.381102
A 2.381102 1.587401 -1.587401
A -1.587401 0.793701 -1.587401
A -2.381102 0.793701 -0.793701
A -1.587401 1.587401 -0.793701
A -2.381102 1.587401 0.000000
A -1.587401 0.793701 0.000000
A -2.381102 0.793701 0.793701
A -1.587401 1.587401 0.793701
A -2.381102 1.587401 1.587401
A -1.587401 0.793701 1.587401
A -0.793701 -2.381102 -2.381102
A -0.000000 -1.587401 -2.381102
A -0.793701 -1.587401 -1.587401
A -0.000000 -2.381102 -1.587401
A -0.793701 -2.381102 -0.793701
A -0.000000 -1.587401 -0.793701
A -0.793701 -1.587401 0.000000
A -0.000000 -2.381102 0.000000
A -0.793701 -2.381102 0.793701
A -0.000000 -1.587401 0.793701
A -0.793701 -1.587401 1.587401
A -0.000000 -2.381102 1.587401
A -0.793701 -0.793701 -2.381102
A -0.000000 0.000000 -2.381102
A -0.793701 0.000000 -1.587401
A -0.000000 -0.793701 -1.587401
A -0.793701 -0.793701 -0.793701
A -0.000000 0.000000 -0.793701
A -0.793701 0.000000 0.000000
A -0.000000 -0.793701 0.000000
A -0.793701 -0.793701 0.793701
A 0.000000 0.000000 0.793701
A -0.793701 0.000000 1.587401
A -0.000000 -0.793701 1.587401
A -0.793701 0.793701 -2.381102
A -0.000000 1.587401 -2.381102
A -0.793701 1.587401 -1.587401
A -0.000000 0.793701 -1.587401
A -0.793701 0.793701 -0.793701
A -0.000000 1.587401 -0.793701
A -0.793701 1.587401 0.000000
A -0.000000 0.793701 0.000000
A -0.793701 0.793701 0.793701
A -0.000000 1.587401 0.793701
A -0.793701 1.587401 1.587401
A -0.000000 0.793701 1.587401
A 0.793701 -2.381102 -2.381102
A 1.587401 -1.587401 -2.381102
A 0.793701 -1.587401 -1.587401
A 1.587401 -2.381102 -1.587401
A 0.793701 -2.381102 -0.793701
A 1.587401 -1.587401 -0.793701
A 0.793701 -1.587401 0.000000
A 1.587401 -2.381102 0.000000
A 0.793701 -2.381102 0.793701
A 1.587401 -1.587401 0.793701
A 0.793701 -1.587401 1.587401
A 1.587401 -2.381102 1.587401
A 0.793701 -0.793701 -2.381102
A 1.587401 -0.000000 -2.381102
A 0.793701 0.000000 -1.587401
A 1.587401 -0.793701 -1.587401
A 0.793701 -0.793701 -0.793701
A 1.587401 0.000000 -0.793701
A 0.793701 0.000000 0.000000
A 1.587401 -0.793701 0.000000
A 0.793701 -0.793701 0.793701
A 1.587401 0.000000 0.793701
A 0.793701 0.000000 1.587401
A 1.587401 -0.793701 1.587401
A 0.793701 0.793701 -2.381102
A 1.587401 1.587401 -2.381102
A 0.793701 1.587401 -1.587401
A 1.587401 0.793701 -1.587401
A 0.793701 0.793701 -0.793701
A 1.587401 1.587401 -0.793701
A 0.793701 1.587401 0.000000
A 1.587401 0.793701 0.000000
A 0.793701 0.793701 0.793701
A 1.587401 1.587401 0.793701
A 0.793701 1.587401 1.587401
A 1.587401 0.793701 1.587401
108
step:20 columns:name,pos cell:4.7622031559,4.7622031559,4.7622031559 dt:0.002
A -2.381102 2.381102 2.381102
A -1.587401 -1.587401 2.381102
A -2.381102 -1.587401 -1.587401
A -1.587401 -2.381102 -1.587401
A -2.381102 2.381102 -0.793701
A -1.587401 -1.587401 -0.793701
A -2.381102 -1.587401 -0.000000
A -1.587401 2.381102 -0.000000
A -2.381102 2.381102 0.793701
A -1.587401 -1.587401 0.793701
A -2.381102 -1.587401 1.587401
A -1.587401 2.381102 1.587401
A -2.381102 -0.793701 2.381102
A -1.587401 0.000000 2.381102
A -2.381102 0.000000 -1.587401
A -1.587401 -0.793701 -1.587401
A -2.381102 -0.793701 -0.793701
A -1.587401 0.000000 -0.793701
A -2.381102 0.000000 -0.000000
A -1.587401 -0.793701 0.000000
A -2.381102 -0.793701 0.793701
A -1.587401 0.000000 0.793701
A -2.381102 0.000000 1.587401
A -1.587401 -0.793701 1.587401
A 2.381102 0.793701 2.381102
A -1.587401 1.587401 2.381102
A 2.381102 1.587401 -1.587401
A -1.587401 0.793701 -1.587401
A -2.381102 0.793701 -0.793701
A -1.587401 1.587401 -0.793701
A -2.381102 1.587401 -0.000000
A -1.587401 0.793701 -0.000000
A -2.381102 0.793701 0.793701
A -1.587401 1.587401 0.793701
A 2.381102 1.587401 1.587401
A -1.587401 0.793701 1.587401
A -0.793701 -2.381102 2.381102
A -0.000000 -1.587401 2.381102
A -0.793701 -1.587401 -1.587401
A 0.000000 -2.381102 -1.587401
A -0.793701 -2.381102 -0.793701
A -0.000000 -1.587401 -0.793701
A -0.793701 -1.587401 0.000000
A 0.000000 -2.381102 -0.000000
A -0.793701 2.381102 0.793701
A -0.000000 -1.587401 0.793701
A -0.793701 -1.587401 1.587401
A 0.000000 -2.381102 1.587401
A -0.793701 -0.793701 2.381102
A 0.000000 0.000000 2.381102
A -0.793701 0.000000 -1.587401
A -0.000000 -0.793701 -1.587401
A -0.793701 -0.793701 -0.793701
A 0.000000 -0.000000 -0.793701
A -0.793701 0.000000 0.000000
A -0.000000 -0.793701 0.000000
A -0.793701 -0.793701 0.793701
A 0.000000 -0.000000 0.793701
A -0.793701 0.000000 1.587401
A 0.000000 -0.793701 1.587401
A -0.793701 0.793701 2.381102
A 0.000000 1.587401 2.381102
A -0.793701 1.587401 -1.587401
A 0.000000 0.793701 -1.587401
A -0.793701 0.793701 -0.793701
A 0.000000 1.587401 -0.793701
A -0.793701 1.587401 -0.000000
A 0.000000 0.793701 -0.000000
A -0.793701 0.793701 0.793701
A 0.000000 1.587401 0.793701
A -0.793701 1.587401 1.587401
A 0.000000 0.793701 1.587401
A 0.793701 -2.381102 2.381102
A 1.587401 -1.587401 2.381102
A 0.793701 -1.587401 -1.587401
A 1.587401 -2.381102 -1.587401
A 0.793701 -2.381102 -0.793701
A 1.587401 -1.587401 -0.793701
A 0.793701 -1.587401 -0.000000
A 1.587401 2.381102 -0.000000
A 0.793701 -2.381102 0.793701
A 1.587401 -1.587401 0.793701
A 0.793701 -1.587401 1.587401
A 1.587401 -2.381102 1.587401
A 0.793701 -0.793701 2.381102
A 1.587401 -0.000000 2.381102
A 0.793701 -0.000000 -1.587401
A 1.587401 -0.793701 -1.587401
A 0.793701 -0.793701 -0.793701
A 1.587401 0.000000 -0.793701
A 0.793701 0.000000 -0.000000
A 1.587401 -0.793701 -0.000000
A 0.793701 -0.793701 0.793701
A 1.587401 0.000000 0.793701
A 0.793701 -0.000000 1.587401
A 1.587401 -0.793701 1.587401
A 0.793701 0.793701 2.381102
A 1.587401 1.587401 2.381102
A 0.793701 1.587401 -1.587401
A 1.587401 0.793701 -1.587401
A 0.793701 0.793701 -0.793701
A 1.587401 1.587401 -0.793701
A 0.793701 1.587401 -0.000000
A 1.587401 0.793701 -0.000000
A 0.793701 0.793701 0.793701
A 1.587401 1.587401 0.793701
A 0.793701 1.587401 1.587401
A 1.587401 0.793701 1.587401
108
step:30 columns:name,pos cell:4.7622031559,4.7622031559,4.7622031559 dt:0.002
A 2.381102 2.381102 -2.381102
A -1.587401 -1.587401 -2.381102
A 2.381102 -1.587401 -1.587401
A -1.587401 2.381102 -1.587401
A 2.381102 2.381102 -0.793701
A -1.587401 -1.587401 -0.793701
A 2.381102 -1.587401 0.000000
A -1.587401 2.381102 -0.000000
A 2.381102 2.381102 0.793701
A -1.587401 -1.587401 0.793701
A 2.381102 -1.587401 1.587401
A -1.587401 2.381102 1.587401
A 2.381102 -0.793701 -2.381102
A -1.587401 0.000000 -2.381102
A 2.381102 0.000000 -1.587401
A -1.587401 -0.793701 -1.587401
A 2.381102 -0.793701 -0.793701
A -1.587401 0.000000 -0.793701
A 2.381102 0.000000 0.000000
A -1.587401 -0.793701 0.000000
A 2.381102 -0.793701 0.793701
A -1.587401 0.000000 0.793701
A 2.381102 -0.000000 1.587401
A -1.587401 -0.793701 1.587401
A 2.381102 0.793701 2.381102
A -1.587401 1.587401 2.381102
A 2.381102 1.587401 -1.587401
A -1.587401 0.793701 -1.587401
A 2.381102 0.793701 -0.793701
A -1.587401 1.587401 -0.793701
A 2.381102 1.587401 -0.000000
A -1.587401 0.793701 -0.000000
A 2.381102 0.793701 0.793701
A -1.587401 1.587401 0.793701
A 2.381102 1.587401 1.587401
A -1.587401 0.793701 1.587401
A -0.793701 2.381102 -2.381102
A -0.000000 -1.587401 -2.381102
A -0.793701 -1.587401 -1.587401
A -0.000000 -2.381102 -1.587401
A -0.793701 2.381102 -0.793701
A -0.000000 -1.587401 -0.793701
A -0.793701 -1.587401 0.000000
A -0.000000 2.381102 -0.000000
A -0.793701 2.381102 0.793701
A -0.000000 -1.587401 0.793701
A -0.793701 -1.587401 1.587401
A -0.000000 -2.381102 1.587401
A -0.793701 -0.793701 -2.381102
A -0.000000 -0.000000 2.381102
A -0.793701 -0.000000 -1.587401
A -0.000000 -0.793701 -1.587401
A -0.793701 -0.793701 -0.793701
A -0.000000 -0.000000 -0.793701
A -0.793701 -0.000000 0.000000
A -0.000000 -0.793701 0.000000
A -0.793701 -0.793701 0.793701
A -0.000000 -0.000000 0.793701
A -0.793701 -0.000000 1.587401
A -0.000000 -0.793701 1.587401
A -0.793701 0.793701 2.381102
A 0.000000 1.587401 2.381102
A -0.793701 1.587401 -1.587401
A -0.000000 0.793701 -1.587401
A -0.793701 0.793701 -0.793701
A -0.000000 1.587401 -0.793701
A -0.793701 1.587401 -0.000000
A 0.000000 0.793701 -0.000000
A -0.793701 0.793701 0.793701
A 0.000000 1.587401 0.793701
A -0.793701 1.587401 1.587401
A 0.000000 0.793701 1.587401
A 0.793701 -2.381102 2.381102
A 1.587401 -1.587401 2.381102
A 0.793701 -1.587401 -1.587401
A 1.587401 -2.381102 -1.587401
A 0.793701 -2.381102 -0.793701
A 1.587401 -1.587401 -0.793701
A 0.793701 -1.587401 0.000000
A 1.587401 2.381102 -0.000000
A 0.793701 2.381102 0.793701
A 1.587401 -1.587401 0.793701
A 0.793701 -1.587401 1.587401
A 1.587401 2.381102 1.587401
A 0.793701 -0.793701 -2.381102
A 1.587401 -0.000000 2.381102
A 0.793701 -0.000000 -1.587401
A 1.587401 -0.793701 -1.587401
A 0.793701 -0.793701 -0.793701
A 1.587401 -0.000000 -0.793701
A 0.793701 -0.000000 -0.000000
A 1.587401 -0.793701 0.000000
A 0.793701 -0.793701 0.793701
A 1.587401 -0.000000 0.793701
A 0.793701 -0.000000 1.587401
A 1.587401 -0.793701 1.587401
A 0.793701 0.793701 2.381102
A 1.587401 1.587401 2.381102
A 0.793701 1.587401 -1.587401
A 1.587401 0.793701 -1.587401
A 0.793701 0.793701 -0.793701
A 1.587401 1.587401 -0.793701
A 0.793701 1.587401 -0.000000
A 1.587401 0.793701 -0.000000
A 0.793701 0.793701 0.793701
A 1.587401 1.587401 0.793701
A 0.793701 1.587401 1.587401
A 1.587401 0.793701 1.587401
108
step:40 columns:name,pos cell:4.7622031559,4.7622031559,4.7622031559 dt:0.002
A -2.381102 -2.381102 2.381102
A -1.587401 -1.587401 -2.381102
A -2.381102 -1.587401 -1.587401
A -1.587401 -2.381102 -1.587401
A -2.381102 2.381102 -0.793701
A -1.587401 -1.587401 -0.793701
A -2.381102 -1.587401 0.000000
A -1.587401 2.381102 -0.000000
A -2.381102 2.381102 0.793701
A -1.587401 -1.587401 0.793701
A -2.381102 -1.587401 1.587401
A -1.587401 2.381102 1.587401
A -2.381102 -0.793701 2.381102
A -1.587401 0.000000 2.381102
A -2.381102 0.000000 -1.587401
A -1.587401 -0.793701 -1.587401
A -2.381102 -0.793701 -0.793701
A -1.587401 0.000000 -0.793701
A -2.381102 0.000000 -0.000000
A -1.587401 -0.793701 0.000000
A -2.381102 -0.793701 0.793701
A -1.587401 0.000000 0.793701
A -2.381102 0.000000 1.587401
A -1.587401 -0.793701 1.587401
A -2.381102 0.793701 2.381102
A -1.587401 1.587401 2.381102
A -2.381102 1.587401 -1.587401
A -1.587401 0.793701 -1.587401
A -2.381102 0.793701 -0.793701
A -1.587401 1.587401 -0.793701
A -2.381102 1.587401 -0.000000
A -1.587401 0.793701 -0.000000
A -2.381102 0.793701 0.793701
A -1.587401 1.587401 0.793701
A -2.381102 1.587401 1.587401
A -1.587401 0.793701 1.587401
A -0.793701 -2.381102 2.381102
A 0.000000 -1.587401 2.381102
A -0.793701 -1.587401 -1.587401
A 0.000000 -2.381102 -1.587401
A -0.793701 -2.381102 -0.793701
A 0.000000 -1.587401 -0.793701
A -0.793701 -1.587401 0.000000
A 0.000000 -2.381102 -0.000000
A -0.793701 2.381102 0.793701
A 0.000000 -1.587401 0.793701
A -0.793701 -1.587401 1.587401
A 0.000000 -2.381102 1.587401
A -0.793701 -0.793701 2.381102
A 0.000000 -0.000000 2.381102
A -0.793701 0.000000 -1.587401
A 0.000000 -0.793701 -1.587401
A -0.793701 -0.793701 -0.793701
A 0.000000 0.000000 -0.793701
A -0.793701 0.000000 0.000000
A 0.000000 -0.793701 0.000000
A -0.793701 -0.793701 0.793701
A 0.000000 0.000000 0.793701
A -0.793701 0.000000 1.587401
A 0.000000 -0.793701 1.587401
A -0.793701 0.793701 2.381102
A 0.000000 1.587401 2.381102
A -0.793701 1.587401 -1.587401
A 0.000000 0.793701 -1.587401
A -0.793701 0.793701 -0.793701
A 0.000000 1.587401 -0.793701
A -0.793701 1.587401 -0.000000
A 0.000000 0.793701 -0.000000
A -0.793701 0.793701 0.793701
A 0.000000 1.587401 0.793701
A -0.793701 1.587401 1.587401
A 0.000000 0.793701 1.587401
A 0.793701 -2.381102 2.381102
A 1.587401 -1.587401 2.381102
A 0.793701 -1.587401 -1.587401
A 1.587401 -2.381102 -1.587401
A 0.793701 -2.381102 -0.793701
A 1.587401 -1.587401 -0.793701
A 0.793701 -1.587401 -0.000000
A 1.587401 2.381102 -0.000000
A 0.793701 -2.381102 0.793701
A 1.587401 -1.587401 0.793701
A 0.793701 -1.587401 1.587401
A 1.587401 -2.381102 1.587401
A 0.793701 -0.793701 2.381102
A 1.587401 0.000000 2.381102
A 0.793701 -0.000000 -1.587401
A 1.587401 -0.793701 -1.587401
A 0.793701 -0.793701 -0.793701
A 1.587401 0.000000 -0.793701
A 0.793701 0.000000 -0.000000
A 1.587401 -0.793701 -0.000000
A 0.793701 -0.793701 0.793701
A 1.587401 0.000000 0.793701
A 0.793701 0.000000 1.587401
A 1.587401 -0.793701 1.587401
A 0.793701 0.793701 2.381102
A 1.587401 1.587401 2.381102
A 0.793701 1.587401 -1.587401
A 1.587401 0.793701 -1.587401
A 0.793701 0.793701 -0.793701
A 1.587401 1.587401 -0.793701
A 0.793701 1.587401 -0.000000
A 1.587401 0.793701 -0.000000
A 0.793701 0.793701 0.793701
A 1.587401 1.587401 0.793701
A 0.793701 1.587401 1.587401
A 1.587401 0.793701 1.587401
108
step:50 columns:name,pos cell:4.7622031559,4.7622031559,4.7622031559 dt:0.002
A -2.381102 -2.381102 -2.381102
A -1.587401 -1.587401 2.381102
A -2.381102 -1.587401 -1.587401
A -1.587401 2.381102 -1.587401
A -2.381102 2.381102 -0.793701
A -1.587401 -1.587401 -0.793701
A -2.381102 -1.587401 0.000000
A -1.587401 2.381102 0.000000
A -2.381102 2.381102 0.793701
A -1.587401 -1.587401 0.793701
A -2.381102 -1.587401 1.587401
A -1.587401 2.381102 1.587401
A -2.381102 -0.793701 2.381102
A -1.587401 0.000000 2.381102
A -2.381102 0.000000 -1.587401
A -1.587401 -0.793701 -1.587401
A -2.381102 -0.793701 -0.793701
A -1.587401 0.000000 -0.793701
A -2.381102 0.000000 0.000000
A -1.587401 -0.793701 0.000000
A -2.381102 -0.793701 0.793701
A -1.587401 0.000000 0.793701
A -2.381102 0.000000 1.587401
A -1.587401 -0.793701 1.587401
A -2.381102 0.793701 2.381102
A -1.587401 1.587401 2.381102
A -2.381102 1.587401 -1.587401
A -1.587401 0.793701 -1.587401
A -2.381102 0.793701 -0.793701
A -1.587401 1.587401 -0.793701
A -2.381102 1.587401 -0.000000
A -1.587401 0.793701 -0.000000
A -2.381102 0.793701 0.793701
A -1.587401 1.587401 0.793701
A -2.381102 1.587401 1.587401
A -1.587401 0.793701 1.587401
A -0.793701 -2.381102 -2.381102
A 0.000000 -1.587401 -2.381102
A -0.793701 -1.587401 -1.587401
A 0.000000 -2.381102 -1.587401
A -0.793701 -2.381102 -0.793701
A 0.000000 -1.587401 -0.793701
A -0.793701 -1.587401 0.000000
A 0.000000 -2.381102 -0.000000
A -0.793701 2.381102 0.793701
A 0.000000 -1.587401 0.793701
A -0.793701 -1.587401 1.587401
A 0.000000 -2.381102 1.587401
A -0.793701 -0.793701 2.381102
A 0.000000 -0.000000 2.381102
A -0.793701 -0.000000 -1.587401
A 0.000000 -0.793701 -1.587401
A -0.793701 -0.793701 -0.793701
A 0.000000 -0.000000 -0.793701
A -0.793701 0.000000 0.000000
A 0.000000 -0.793701 0.000000
A -0.793701 -0.793701 0.793701
A 0.000000 0.000000 0.793701
A -0.793701 0.000000 1.587401
A 0.000000 -0.793701 1.587401
A -0.793701 0.793701 -2.381102
A 0.000000 1.587401 -2.381102
A -0.793701 1.587401 -1.587401
A 0.000000 0.793701 -1.587401
A -0.793701 0.793701 -0.793701
A 0.000000 1.587401 -0.793701
A -0.793701 1.587401 -0.000000
A 0.000000 0.793701 -0.000000
A -0.793701 0.793701 0.793701
A 0.000000 1.587401 0.793701
A -0.793701 1.587401 1.587401
A 0.000000 0.793701 1.587401
A 0.793701 -2.381102 -2.381102
A 1.587401 -1.587401 -2.381102
A 0.793701 -1.587401 -1.587401
A 1.587401 -2.381102 -1.587401
A 0.793701 -2.381102 -0.793701
A 1.587401 -1.587401 -0.793701
A 0.793701 -1.587401 -0.000000
A 1.587401 2.381102 -0.000000
A 0.793701 -2.381102 0.793701
A 1.587401 -1.587401 0.793701
A 0.793701 -1.587401 1.587401
A 1.587401 -2.381102 1.587401
A 0.793701 -0.793701 2.381102
A 1.587401 0.000000 2.381102
A 0.793701 -0.000000 -1.587401
A 1.587401 -0.793701 -1.587401
A 0.793701 -0.793701 -0.793701
A 1.587401 -0.000000 -0.793701
A 0.793701 -0.000000 -0.000000
A 1.587401 -0.793701 0.000000
A 0.793701 -0.793701 0.793701
A 1.587401 0.000000 0.793701
A 0.793701 -0.000000 1.587401
A 1.587401 -0.793701 1.587401
A 0.793701 0.793701 -2.381102
A 1.587401 1.587401 -2.381102
A 0.793701 1.587401 -1.587401
A 1.587401 0.793701 -1.587401
A 0.793701 0.793701 -0.793701
A 1.587401 1.587401 -0.793701
A 0.793701 1.587401 -0.000000
A 1.587401 0.793701 -0.000000
A 0.793701 0.793701 0.793701
A 1.587401 1.587401 0.793701
A 0.793701 1.587401 1.587401
A 1.587401 0.793701 1.587401
108
step:60 columns:name,pos cell:4.7622031559,4.7622031559,4.7622031559 dt:0.002
A -2.381102 -2.381102 -2.381102
A -1.587401 -1.587401 2.381102
A -2.381102 -1.587401 -1.587401
A -1.587401 -2.381102 -1.587401
A -2.381102 -2.381102 -0.793701
A -1.587401 -1.587401 -0.793701
A -2.381102 -1.587401 0.000000
A -1.587401 -2.381102 0.000000
A -2.381102 2.381102 0.793701
A -1.587401 -1.587401 0.793701
A -2.381102 -1.587401 1.587401
A -1.587401 2.381102 1.587401
A -2.381102 -0.793701 2.381102
A -1.587401 0.000000 2.381102
A -2.381102 0.000000 -1.587401
A -1.587401 -0.793701 -1.587401
A -2.381102 -0.793701 -0.793701
A -1.587401 0.000000 -0.793701
A -2.381102 0.000000 -0.000000
A -1.587401 -0.793701 0.000000
A -2.381102 -0.793701 0.793701
A -1.587401 0.000000 0.793701
A -2.381102 0.000000 1.587401
A -1.587401 -0.793701 1.587401
A -2.381102 0.793701 2.381102
A -1.587401 1.587401 2.381102
A -2.381102 1.587401 -1.587401
A -1.587401 0.793701 -1.587401
A -2.381102 0.793701 -0.793701
A -1.587401 1.587401 -0.793701
A -2.381102 1.587401 -0.000000
A -1.587401 0.793701 -0.000000
A -2.381102 0.793701 0.793701
A -1.587401 1.587401 0.793701
A -2.381102 1.587401 1.587401
A -1.587401 0.793701 1.587401
A -0.793701 -2.381102 2.381102
A 0.000000 -1.587401 2.381102
A -0.793701 -1.587401 -1.587401
A 0.000000 -2.381102 -1.587401
A -0.793701 -2.381102 -0.793701
A 0.000000 -1.587401 -0.793701
A -0.793701 -1.587401 0.000000
A 0.000000 -2.381102 -0.000000
A -0.793701 2.381102 0.793701
A 0.000000 -1.587401 0.793701
A -0.793701 -1.587401 1.587401
A 0.000000 -2.381102 1.587401
A -0.793701 -0.793701 2.381102
A 0.000000 -0.000000 2.381102
A -0.793701 -0.000000 -1.587401
A 0.000000 -0.793701 -1.587401
A -0.793701 -0.793701 -0.793701
A 0.000000 0.000000 -0.793701
A -0.793701 0.000000 -0.000000
A 0.000000 -0.793701 0.000000
A -0.793701 -0.793701 0.793701
A 0.000000 0.000000 0.793701
A -0.793701 0.000000 1.587401
A 0.000000 -0.793701 1.587401
A -0.793701 0.793701 -2.381102
A 0.000000 1.587401 -2.381102
A -0.793701 1.587401 -1.587401
A 0.000000 0.793701 -1.587401
A -0.793701 0.793701 -0.793701
A 0.000000 1.587401 -0.793701
A -0.793701 1.587401 -0.000000
A 0.000000 0.793701 -0.000000
A -0.793701 0.793701 0.793701
A 0.000000 1.587401 0.793701
A -0.793701 1.587401 1.587401
A 0.000000 0.793701 1.587401
A 0.793701 -2.381102 -2.381102
A 1.587401 -1.587401 -2.381102
A 0.793701 -1.587401 -1.587401
A 1.587401 -2.381102 -1.587401
A 0.793701 -2.381102 -0.793701
A 1.587401 -1.587401 -0.793701
A 0.793701 -1.587401 -0.000000
A 1.587401 -2.381102 -0.000000
A 0.793701 -2.381102 0.793701
A 1.587401 -1.587401 0.793701
A 0.793701 -1.587401 1.587401
A 1.587401 -2.381102 1.587401
A 0.793701 -0.793701 2.381102
A 1.587401 0.000000 2.381102
A 0.793701 -0.000000 -1.587401
A 1.587401 -0.793701 -1.587401
A 0.793701 -0.793701 -0.793701
A 1.587401 -0.000000 -0.793701
A 0.793701 -0.000000 0.000000
A 1.587401 -0.793701 -0.000000
A 0.793701 -0.793701 0.793701
A 1.587401 0.000000 0.793701
A 0.793701 0.000000 1.587401
A 1.587401 -0.793701 1.587401
A 0.793701 0.793701 -2.381102
A 1.587401 1.587401 -2.381102
A 0.793701 1.587401 -1.587401
A 1.587401 0.793701 -1.587401
A 0.793701 0.793701 -0.793701
A 1.587401 1.587401 -0.793701
A 0.793701 1.587401 -0.000000
A 1.587401 0.793701 -0.000000
A 0.793701 0.793701 0.793701
A 1.587401 1.587401 0.793701
A 0.793701 1.587401 1.587401
A 1.587401 0.793701 1.587401
108
step:70 columns:name,pos cell:4.7622031559,4.7622031559,4.7622031559 dt:0.002
A -2.381102 -2.381102 -2.381102
A -1.587401 -1.587401 2.381102
A -2.381102 -1.587401 -1.587401
A -1.587401 -2.381102 -1.587401
A -2.381102 -2.381102 -0.793701
A -1.587401 -1.587401 -0.793701
A -2.381102 -1.587401 0.000000
A -1.587401 -2.381102 0.000000
A -2.381102 2.381102 0.793701
A -1.587401 -1.587401 0.793701
A 2.381102 -1.587401 1.587401
A -1.587401 -2.381102 1.587401
A 2.381102 -0.793701 2.381102
A -1.587401 0.000000 -2.381102
A -2.381102 0.000000 -1.587401
A -1.587401 -0.793701 -1.587401
A -2.381102 -0.793701 -0.793701
A -1.587401 0.000000 -0.793701
A -2.381102 0.000000 0.000000
A -1.587401 -0.793701 0.000000
A -2.381102 -0.793701 0.793701
A -1.587401 0.000000 0.793701
A -2.381102 0.000000 1.587401
A -1.587401 -0.793701 1.587401
A -2.381102 0.793701 -2.381102
A -1.587401 1.587401 -2.381102
A -2.381102 1.587401 -1.587401
A -1.587401 0.793701 -1.587401
A -2.381102 0.793701 -0.793701
A -1.587401 1.587401 -0.793701
A -2.381102 1.587401 -0.000000
A -1.587401 0.793701 -0.000000
A -2.381102 0.793701 0.793701
A -1.587401 1.587401 0.793701
A -2.381102 1.587401 1.587401
A -1.587401 0.793701 1.587401
A -0.793701 -2.381102 -2.381102
A 0.000000 -1.587401 2.381102
A -0.793701 -1.587401 -1.587401
A 0.000000 -2.381102 -1.587401
A -0.793701 -2.381102 -0.793701
A 0.000000 -1.587401 -0.793701
A -0.793701 -1.587401 0.000000
A 0.000000 -2.381102 -0.000000
A -0.793701 -2.381102 0.793701
A 0.000000 -1.587401 0.793701
A -0.793701 -1.587401 1.587401
A 0.000000 -2.381102 1.587401
A -0.793701 -0.793701 2.381102
A 0.000000 -0.000000 -2.381102
A -0.793701 -0.000000 -1.587401
A 0.000000 -0.793701 -1.587401
A -0.793701 -0.793701 -0.793701
A 0.000000 0.000000 -0.793701
A -0.793701 0.000000 0.000000
A 0.000000 -0.793701 0.000000
A -0.793701 -0.793701 0.793701
A 0.000000 0.000000 0.793701
A -0.793701 0.000000 1.587401
A 0.000000 -0.793701 1.587401
A -0.793701 0.793701 -2.381102
A 0.000000 1.587401 -2.381102
A -0.793701 1.587401 -1.587401
A 0.000000 0.793701 -1.587401
A -0.793701 0.793701 -0.793701
A 0.000000 1.587401 -0.793701
A -0.793701 1.587401 -0.000000
A 0.000000 0.793701 0.000000
A -0.793701 0.793701 0.793701
A 0.000000 1.587401 0.793701
A -0.793701 1.587401 1.587401
A 0.000000 0.793701 1.587401
A 0.793701 -2.381102 -2.381102
A 1.587401 -1.587401 -2.381102
A 0.793701 -1.587401 -1.587401
A 1.587401 -2.381102 -1.587401
A 0.793701 -2.381102 -0.793701
A 1.587401 -1.587401 -0.793701
A 0.793701 -1.587401 -0.000000
A 1.587401 -2.381102 -0.000000
A 0.793701 -2.381102 0.793701
A 1.587401 -1.587401 0.793701
A 0.793701 -1.587401 1.587401
A 1.587401 -2.381102 1.587401
A 0.793701 -0.793701 2.381102
A 1.587401 0.000000 2.381102
A 0.793701 0.000000 -1.587401
A 1.587401 -0.793701 -1.587401
A 0.793701 -0.793701 -0.793701
A 1.587401 0.000000 -0.793701
A 0.793701 0.000000 0.000000
A 1.587401 -0.793701 0.000000
A 0.793701 -0.793701 0.793701
A 1.587401 0.000000 0.793701
A 0.793701 0.000000 1.587401
A 1.587401 -0.793701 1.587401
A 0.793701 0.793701 -2.381102
A 1.587401 1.587401 -2.381102
A 0.793701 1.587401 -1.587401
A 1.587401 0.793701 -1.587401
A 0.793701 0.793701 -0.793701
A 1.587401 1.587401 -0.793701
A 0.793701 1.587401 0.000000
A 1.587401 0.793701 -0.000000
A 0.793701 0.793701 0.793701
A 1.587401 1.587401 0.793701
A 0.793701 1.587401 1.587401
A 1.587401 0.793701 1.587401
108
step:80 columns:name,pos cell:4.7622031559,4.7622031559,4.7622031559 dt:0.002
A 2.381102 -2.381102 2.381102
A -1.587401 -1.587401 2.381102
A 2.381102 -1.587401 -1.587401
A -1.587401 -2.381102 -1.587401
A 2.381102 -2.381102 -0.793701
A -1.587401 -1.587401 -0.793701
A -2.381102 -1.587401 -0.000000
A -1.587401 2.381102 -0.000000
A 2.381102 2.381102 0.793701
A -1.587401 -1.587401 0.793701
A 2.381102 -1.587401 1.587401
A -1.587401 2.381102 1.587401
A 2.381102 -0.793701 2.381102
A -1.587401 -0.000000 2.381102
A 2.381102 0.000000 -1.587401
A -1.587401 -0.793701 -1.587401
A 2.381102 -0.793701 -0.793701
A -1.587401 0.000000 -0.793701
A 2.381102 0.000000 -0.000000
A -1.587401 -0.793701 -0.000000
A 2.381102 -0.793701 0.793701
A -1.587401 0.000000 0.793701
A 2.381102 0.000000 1.587401
A -1.587401 -0.793701 1.587401
A 2.381102 0.793701 2.381102
A -1.587401 1.587401 2.381102
A 2.381102 1.587401 -1.587401
A -1.587401 0.793701 -1.587401
A 2.381102 0.793701 -0.793701
A -1.587401 1.587401 -0.793701
A 2.381102 1.587401 -0.000000
A -1.587401 0.793701 -0.000000
A 2.381102 0.793701 0.793701
A -1.587401 1.587401 0.793701
A 2.381102 1.587401 1.587401
A -1.587401 0.793701 1.587401
A -0.793701 -2.381102 2.381102
A -0.000000 -1.587401 2.381102
A -0.793701 -1.587401 -1.587401
A -0.000000 -2.381102 -1.587401
A -0.793701 -2.381102 -0.793701
A -0.000000 -1.587401 -0.793701
A -0.793701 -1.587401 -0.000000
A -0.000000 2.381102 -0.000000
A -0.793701 2.381102 0.793701
A -0.000000 -1.587401 0.793701
A -0.793701 -1.587401 1.587401
A -0.000000 -2.381102 1.587401
A -0.793701 -0.793701 2.381102
A -0.000000 -0.000000 2.381102
A -0.793701 -0.000000 -1.587401
A -0.000000 -0.793701 -1.587401
A -0.793701 -0.793701 -0.793701
A -0.000000 0.000000 -0.793701
A -0.793701 0.000000 -0.000000
A -0.000000 -0.793701 -0.000000
A -0.793701 -0.793701 0.793701
A -0.000000 0.000000 0.793701
A -0.793701 -0.000000 1.587401
A -0.000000 -0.793701 1.587401
A -0.793701 0.793701 2.381102
A -0.000000 1.587401 2.381102
A -0.793701 1.587401 -1.587401
A -0.000000 0.793701 -1.587401
A -0.793701 0.793701 -0.793701
A -0.000000 1.587401 -0.793701
A -0.793701 1.587401 -0.000000
A -0.000000 0.793701 -0.000000
A -0.793701 0.793701 0.793701
A -0.000000 1.587401 0.793701
A -0.793701 1.587401 1.587401
A -0.000000 0.793701 1.587401
A 0.793701 -2.381102 2.381102
A 1.587401 -1.587401 2.381102
A 0.793701 -1.587401 -1.587401
A 1.587401 -2.381102 -1.587401
A 0.793701 -2.381102 -0.793701
A 1.587401 -1.587401 -0.793701
A 0.793701 -1.587401 -0.000000
A 1.587401 -2.381102 -0.000000
A 0.793701 -2.381102 0.793701
A 1.587401 -1.587401 0.793701
A 0.793701 -1.587401 1.587401
A 1.587401 2.381102 1.587401
A 0.793701 -0.793701 2.381102
A 1.587401 0.000000 2.381102
A 0.793701 -0.000000 -1.587401
A 1.587401 -0.793701 -1.587401
A 0.793701 -0.793701 -0.793701
A 1.587401 -0.000000 -0.793701
A 0.793701 -0.000000 -0.000000
A 1.587401 -0.793701 -0.000000
A 0.793701 -0.793701 0.793701
A 1.587401 0.000000 0.793701